55
Energy:            -278.1517
Ar             -5.6418911             -1.0699071             -2.4099273
Ar              2.9516943              3.2540734              4.5523061
Ar              6.7426686              2.6293792             -0.8755209
Ar              4.1621656              4.6081942              1.1480325
Ar              3.0850809             -1.2253729             -6.3919032
Ar             -3.1442406              1.4496110              6.5039623
Ar             -0.4093630             -2.6800542              2.2589218
Ar             -1.5783376             -6.2957431             -3.0434218
Ar              1.1403744              6.2048351             -0.6426856
Ar             -1.8407854              3.0629171             -5.1390802
Ar             -0.6614336             -0.4756051             -6.1271118
Ar             -0.0295412              0.1121797              0.0560389
Ar             -2.3282738              5.4742644             -2.1665948
Ar             -1.5588676              0.7688599              3.2219818
Ar             -4.3985973              0.2829218             -5.7705092
Ar              0.3502555              2.9044257             -2.1468503
Ar              3.2956395              1.3481721             -0.4013522
Ar              1.7816674             -2.8384944              5.2511151
Ar             -0.8182377              4.0137804              4.8654558
Ar             -1.9377463              5.8374653              1.6548176
Ar             -2.1747648              0.1960144             -2.8047930
Ar              1.9290500              2.3031002             -5.4521279
Ar             -6.8017133             -2.4051468              0.9873072
Ar              0.7309732              3.2584796              1.5778319
Ar             -3.8306502             -4.0205835              2.7852123
Ar             -3.0105852             -3.0297439             -4.4403482
Ar             -6.1294174              1.3414866              0.5624395
Ar              0.6024061              0.6998632              6.2391642
Ar             -1.9882639             -2.0788021              5.5641993
Ar             -4.9188186              2.6955604             -2.8417277
Ar              2.1157581              0.0283520              2.9168084
Ar             -1.1993926             -5.9805068              0.7547671
Ar             -0.8031034             -5.5746553              4.5425028
Ar              1.8786660             -5.6132198             -1.5425650
Ar              1.5193546              6.5200761              3.1554528
Ar             -0.7899950             -3.0341438             -1.4657546
Ar              0.7438851              5.7990598             -4.4304224
Ar             -5.3664155              5.0698643              0.1300923
Ar              4.8598399             -2.4712093              2.9537060
Ar              0.7592829             -3.7895462             -4.7533000
Ar             -2.6499783              2.5463887              0.0924697
Ar             -4.2211758             -4.3838502             -1.0361955
Ar              6.0702930             -1.1172130             -0.4506087
Ar             -5.0100253             -0.4820972              3.7732060
Ar              5.5828909              1.2942392              2.5217879
Ar              4.3396524             -0.0586251              5.8824581
Ar              4.9509103              0.7063974             -3.6613490
Ar              3.7715411              4.2449054             -2.6733331
Ar              4.2278434             -3.0590705             -3.2294323
Ar             -3.3546949             -1.1238315              0.5132838
Ar              5.3073181             -4.8455443             -0.0181111
Ar             -4.2870065              3.2833317              3.3414992
Ar              1.4997982             -0.5445466             -3.1099017
Ar              2.5908878             -2.3220617              0.0196314
Ar              2.2692449             -5.2498531              2.2788103
