127
Energy:             -52.0718
Xe             19.4450124            -14.9345606              0.8537526
Xe             20.3183941            -19.4087973              0.9116709
Xe             19.0764657            -17.2880419              4.7723063
Xe             23.1788712            -16.3541877              2.9908424
Xe             22.3768462            -20.5269348              4.7597243
Xe             16.0664145            -18.0472905              1.3436668
Xe             24.8333429            -19.9875903              0.8763942
Kr             22.0205535            -23.2427310              1.2081032
Kr             20.6173785            -13.2731939              4.5821833
Kr             16.2264460            -14.3223807              3.5647161
Kr             17.1816621            -22.2258315              0.4682193
Kr             22.9878494            -12.6512391              0.8070787
Kr             18.1327114            -21.3162327              4.0512783
Kr             22.8331579            -16.6786797             -1.2270701
Ar             37.1232600            -34.6483700             -2.4748840
Ar             37.1232600            -29.6986100             -2.4748840
Ar             37.1232600            -24.7488300             -2.4748840
Ar             37.1232600            -19.7990700             -2.4748840
Ar             37.1232600            -14.8493100             -2.4748840
Ar             37.1232600             -9.8995350             -2.4748840
Ar             37.1232600             -4.9497670             -2.4748840
Ar             34.6483700            -37.1232600             -2.4748840
Ar             34.6483700            -32.1734900             -2.4748840
Ar             32.1734900            -34.6483700             -2.4748840
Ar             34.6483700            -27.2237200             -2.4748840
Ar             32.1734900            -29.6986100             -2.4748840
Ar             34.6483700            -22.2739600             -2.4748840
Ar             32.1734900            -24.7488300             -2.4748840
Ar             34.6483700            -17.3241800             -2.4748840
Ar             32.1734900            -19.7990700             -2.4748840
Ar             34.6483700            -12.3744200             -2.4748840
Ar             32.1734900            -14.8493100             -2.4748840
Ar             34.6483700             -7.4246520             -2.4748840
Ar             32.1734900             -9.8995350             -2.4748840
Ar             34.6483700             -2.4748840             -2.4748840
Ar             32.1734900             -4.9497670             -2.4748840
Ar             29.6986100            -37.1232600             -2.4748840
Ar             29.6986100            -32.1734900             -2.4748840
Ar             27.2237200            -34.6483700             -2.4748840
Ar             29.6986100            -27.2237200             -2.4748840
Ar             27.2237200            -29.6986100             -2.4748840
Ar             29.6986100            -22.2739600             -2.4748840
Ar             27.2237200            -24.7488300             -2.4748840
Ar             29.6986100            -17.3241800             -2.4748840
Ar             27.2237200            -19.7990700             -2.4748840
Ar             29.6986100            -12.3744200             -2.4748840
Ar             27.2237200            -14.8493100             -2.4748840
Ar             29.6986100             -7.4246520             -2.4748840
Ar             27.2237200             -9.8995350             -2.4748840
Ar             29.6986100             -2.4748840             -2.4748840
Ar             27.2237200             -4.9497670             -2.4748840
Ar             24.7488300            -37.1232600             -2.4748840
Ar             24.7488300            -32.1734900             -2.4748840
Ar             22.2739600            -34.6483700             -2.4748840
Ar             24.7488300            -27.2237200             -2.4748840
Ar             22.2739600            -29.6986100             -2.4748840
Ar             24.7488300            -22.2739600             -2.4748840
Ar             22.2739600            -24.7488300             -2.4748840
Ar             24.7488300            -17.3241800             -2.4748840
Ar             22.2739600            -19.7990700             -2.4748840
Ar             24.7488300            -12.3744200             -2.4748840
Ar             22.2739600            -14.8493100             -2.4748840
Ar             24.7488300             -7.4246520             -2.4748840
Ar             22.2739600             -9.8995350             -2.4748840
Ar             24.7488300             -2.4748840             -2.4748840
Ar             22.2739600             -4.9497670             -2.4748840
Ar             19.7990700            -37.1232600             -2.4748840
Ar             19.7990700            -32.1734900             -2.4748840
Ar             17.3241800            -34.6483700             -2.4748840
Ar             19.7990700            -27.2237200             -2.4748840
Ar             17.3241800            -29.6986100             -2.4748840
Ar             19.7990700            -22.2739600             -2.4748840
Ar             17.3241800            -24.7488300             -2.4748840
Ar             19.7990700            -17.3241800             -2.4748840
Ar             17.3241800            -19.7990700             -2.4748840
Ar             19.7990700            -12.3744200             -2.4748840
Ar             17.3241800            -14.8493100             -2.4748840
Ar             19.7990700             -7.4246520             -2.4748840
Ar             17.3241800             -9.8995350             -2.4748840
Ar             19.7990700             -2.4748840             -2.4748840
Ar             17.3241800             -4.9497670             -2.4748840
Ar             14.8493100            -37.1232600             -2.4748840
Ar             14.8493100            -32.1734900             -2.4748840
Ar             12.3744200            -34.6483700             -2.4748840
Ar             14.8493100            -27.2237200             -2.4748840
Ar             12.3744200            -29.6986100             -2.4748840
Ar             14.8493100            -22.2739600             -2.4748840
Ar             12.3744200            -24.7488300             -2.4748840
Ar             14.8493100            -17.3241800             -2.4748840
Ar             12.3744200            -19.7990700             -2.4748840
Ar             14.8493100            -12.3744200             -2.4748840
Ar             12.3744200            -14.8493100             -2.4748840
Ar             14.8493100             -7.4246520             -2.4748840
Ar             12.3744200             -9.8995350             -2.4748840
Ar             14.8493100             -2.4748840             -2.4748840
Ar             12.3744200             -4.9497670             -2.4748840
Ar              9.8995350            -37.1232600             -2.4748840
Ar              9.8995350            -32.1734900             -2.4748840
Ar              7.4246520            -34.6483700             -2.4748840
Ar              9.8995350            -27.2237200             -2.4748840
Ar              7.4246520            -29.6986100             -2.4748840
Ar              9.8995350            -22.2739600             -2.4748840
Ar              7.4246520            -24.7488300             -2.4748840
Ar              9.8995350            -17.3241800             -2.4748840
Ar              7.4246520            -19.7990700             -2.4748840
Ar              9.8995350            -12.3744200             -2.4748840
Ar              7.4246520            -14.8493100             -2.4748840
Ar              9.8995350             -7.4246520             -2.4748840
Ar              7.4246520             -9.8995350             -2.4748840
Ar              9.8995350             -2.4748840             -2.4748840
Ar              7.4246520             -4.9497670             -2.4748840
Ar              4.9497670            -37.1232600             -2.4748840
Ar              4.9497670            -32.1734900             -2.4748840
Ar              2.4748840            -34.6483700             -2.4748840
Ar              4.9497670            -27.2237200             -2.4748840
Ar              2.4748840            -29.6986100             -2.4748840
Ar              4.9497670            -22.2739600             -2.4748840
Ar              2.4748840            -24.7488300             -2.4748840
Ar              4.9497670            -17.3241800             -2.4748840
Ar              2.4748840            -19.7990700             -2.4748840
Ar              4.9497670            -12.3744200             -2.4748840
Ar              2.4748840            -14.8493100             -2.4748840
Ar              4.9497670             -7.4246520             -2.4748840
Ar              2.4748840             -9.8995350             -2.4748840
Ar              4.9497670             -2.4748840             -2.4748840
Ar              2.4748840             -4.9497670             -2.4748840
XX             19.7990700            -19.7990700             -2.4748840
