10
Energy:             -25.3408
He             -2.2833537              0.9431035             -3.2015684
He              2.6788733              0.9078847             -2.9718363
Ne              0.1856265             -0.6562352             -2.6807932
Ne             -2.8504130              3.2946070              0.1937526
Ar              1.9931931             -0.0991146              0.2213281
Ar              0.1205273              2.6145008             -1.4479123
Kr             -1.8854171             -0.1846140              0.2241153
Kr              0.3202916             -3.4729087             -0.3667470
Xe              0.1129702              2.5835432              2.6709806
Xe              0.2098807             -1.7625424              3.5065612
