5
Energy:              -7.1784
He              1.4626664             -2.3670357             -0.1910512
Ne              1.2103539              3.2053180              0.8622042
Ar             -0.6327074              0.2863272              0.4459466
Kr              2.8526143              0.1893632              2.0458568
Xe              2.5293390              0.9883230             -2.0886998
