127
Energy:            3894.9818
Xe              9.9586714            -24.7975554              0.7188497
Xe             12.8104148            -28.2593473              1.2356008
Xe             13.3492217            -24.7360328              4.0857746
Xe              9.5785466            -27.2649196              4.4671455
Xe             10.0924225            -24.6801137             -5.7576643
Xe             12.5368542            -21.1598935              1.3307539
Xe              9.4237165            -22.5221146              4.5776339
Kr             14.5000044            -24.7540548             -5.5065215
Kr             11.0810158            -24.9511131              7.7279193
Kr             17.0727580            -27.6155784              0.7525720
Kr              7.0347660            -27.6193817             -5.6019002
Kr             13.4538557            -28.7916319              5.4758331
Kr             14.7709556            -24.6115124              0.2500903
Kr              6.2100124            -25.0303688              5.8668595
Ar             37.1232600            -34.6483700             -2.4748840
Ar             37.1232600            -29.6986100             -2.4748840
Ar             37.1232600            -24.7488300             -2.4748840
Ar             37.1232600            -19.7990700             -2.4748840
Ar             37.1232600            -14.8493100             -2.4748840
Ar             37.1232600             -9.8995350             -2.4748840
Ar             37.1232600             -4.9497670             -2.4748840
Ar             34.6483700            -37.1232600             -2.4748840
Ar             34.6483700            -32.1734900             -2.4748840
Ar             32.1734900            -34.6483700             -2.4748840
Ar             34.6483700            -27.2237200             -2.4748840
Ar             32.1734900            -29.6986100             -2.4748840
Ar             34.6483700            -22.2739600             -2.4748840
Ar             32.1734900            -24.7488300             -2.4748840
Ar             34.6483700            -17.3241800             -2.4748840
Ar             32.1734900            -19.7990700             -2.4748840
Ar             34.6483700            -12.3744200             -2.4748840
Ar             32.1734900            -14.8493100             -2.4748840
Ar             34.6483700             -7.4246520             -2.4748840
Ar             32.1734900             -9.8995350             -2.4748840
Ar             34.6483700             -2.4748840             -2.4748840
Ar             32.1734900             -4.9497670             -2.4748840
Ar             29.6986100            -37.1232600             -2.4748840
Ar             29.6986100            -32.1734900             -2.4748840
Ar             27.2237200            -34.6483700             -2.4748840
Ar             29.6986100            -27.2237200             -2.4748840
Ar             27.2237200            -29.6986100             -2.4748840
Ar             29.6986100            -22.2739600             -2.4748840
Ar             27.2237200            -24.7488300             -2.4748840
Ar             29.6986100            -17.3241800             -2.4748840
Ar             27.2237200            -19.7990700             -2.4748840
Ar             29.6986100            -12.3744200             -2.4748840
Ar             27.2237200            -14.8493100             -2.4748840
Ar             29.6986100             -7.4246520             -2.4748840
Ar             27.2237200             -9.8995350             -2.4748840
Ar             29.6986100             -2.4748840             -2.4748840
Ar             27.2237200             -4.9497670             -2.4748840
Ar             24.7488300            -37.1232600             -2.4748840
Ar             24.7488300            -32.1734900             -2.4748840
Ar             22.2739600            -34.6483700             -2.4748840
Ar             24.7488300            -27.2237200             -2.4748840
Ar             22.2739600            -29.6986100             -2.4748840
Ar             24.7488300            -22.2739600             -2.4748840
Ar             22.2739600            -24.7488300             -2.4748840
Ar             24.7488300            -17.3241800             -2.4748840
Ar             22.2739600            -19.7990700             -2.4748840
Ar             24.7488300            -12.3744200             -2.4748840
Ar             22.2739600            -14.8493100             -2.4748840
Ar             24.7488300             -7.4246520             -2.4748840
Ar             22.2739600             -9.8995350             -2.4748840
Ar             24.7488300             -2.4748840             -2.4748840
Ar             22.2739600             -4.9497670             -2.4748840
Ar             19.7990700            -37.1232600             -2.4748840
Ar             19.7990700            -32.1734900             -2.4748840
Ar             17.3241800            -34.6483700             -2.4748840
Ar             19.7990700            -27.2237200             -2.4748840
Ar             17.3241800            -29.6986100             -2.4748840
Ar             19.7990700            -22.2739600             -2.4748840
Ar             17.3241800            -24.7488300             -2.4748840
Ar             19.7990700            -17.3241800             -2.4748840
Ar             17.3241800            -19.7990700             -2.4748840
Ar             19.7990700            -12.3744200             -2.4748840
Ar             17.3241800            -14.8493100             -2.4748840
Ar             19.7990700             -7.4246520             -2.4748840
Ar             17.3241800             -9.8995350             -2.4748840
Ar             19.7990700             -2.4748840             -2.4748840
Ar             17.3241800             -4.9497670             -2.4748840
Ar             14.8493100            -37.1232600             -2.4748840
Ar             14.8493100            -32.1734900             -2.4748840
Ar             12.3744200            -34.6483700             -2.4748840
Ar             14.8493100            -27.2237200             -2.4748840
Ar             12.3744200            -29.6986100             -2.4748840
Ar             14.8493100            -22.2739600             -2.4748840
Ar             12.3744200            -24.7488300             -2.4748840
Ar             14.8493100            -17.3241800             -2.4748840
Ar             12.3744200            -19.7990700             -2.4748840
Ar             14.8493100            -12.3744200             -2.4748840
Ar             12.3744200            -14.8493100             -2.4748840
Ar             14.8493100             -7.4246520             -2.4748840
Ar             12.3744200             -9.8995350             -2.4748840
Ar             14.8493100             -2.4748840             -2.4748840
Ar             12.3744200             -4.9497670             -2.4748840
Ar              9.8995350            -37.1232600             -2.4748840
Ar              9.8995350            -32.1734900             -2.4748840
Ar              7.4246520            -34.6483700             -2.4748840
Ar              9.8995350            -27.2237200             -2.4748840
Ar              7.4246520            -29.6986100             -2.4748840
Ar              9.8995350            -22.2739600             -2.4748840
Ar              7.4246520            -24.7488300             -2.4748840
Ar              9.8995350            -17.3241800             -2.4748840
Ar              7.4246520            -19.7990700             -2.4748840
Ar              9.8995350            -12.3744200             -2.4748840
Ar              7.4246520            -14.8493100             -2.4748840
Ar              9.8995350             -7.4246520             -2.4748840
Ar              7.4246520             -9.8995350             -2.4748840
Ar              9.8995350             -2.4748840             -2.4748840
Ar              7.4246520             -4.9497670             -2.4748840
Ar              4.9497670            -37.1232600             -2.4748840
Ar              4.9497670            -32.1734900             -2.4748840
Ar              2.4748840            -34.6483700             -2.4748840
Ar              4.9497670            -27.2237200             -2.4748840
Ar              2.4748840            -29.6986100             -2.4748840
Ar              4.9497670            -22.2739600             -2.4748840
Ar              2.4748840            -24.7488300             -2.4748840
Ar              4.9497670            -17.3241800             -2.4748840
Ar              2.4748840            -19.7990700             -2.4748840
Ar              4.9497670            -12.3744200             -2.4748840
Ar              2.4748840            -14.8493100             -2.4748840
Ar              4.9497670             -7.4246520             -2.4748840
Ar              2.4748840             -9.8995350             -2.4748840
Ar              4.9497670             -2.4748840             -2.4748840
Ar              2.4748840             -4.9497670             -2.4748840
XX             19.7990700            -19.7990700             -2.4748840
