6
Energy:           -2693.0507
Si              0.6903779             -0.5219495             -0.4380804
Si              0.7674611              0.8033703              1.3982007
Si             -1.4112896             -0.1311980             -1.1895106
Si             -1.3342069              1.1941204              0.6467705
Si              0.2756803              1.6618928             -0.8776295
Si             -0.9195085             -0.9897209              1.0863198
