42
Energy:            -178.7860
Ar              0.3770807              1.2349615             -0.2799650
Ar             -0.3852251              0.9870615             -3.6722229
Ar              1.2880393              1.5825338              3.1484166
Ar             -0.9003704             -1.3833797              1.8494121
Ar              0.1385496             -2.1334059             -1.6541749
Ar              0.1955770              4.5471643              0.9922806
Ar              1.6430576             -1.6364241             -5.1359669
Ar              1.6479343             -1.9034645              4.4485069
Ar              2.2713510              2.1520101             -5.8846784
Ar             -1.4792117              0.4220909              5.2221269
Ar              3.1515065             -0.8004282              0.9580933
Ar              3.1958830              0.5287997             -2.5377575
Ar             -2.2845034             -1.9820853             -4.5589415
Ar              1.4863459              2.6058864              6.6806218
Ar             -1.9259569             -3.3290443              4.9524794
Ar             -1.0864452              4.2203729              4.4778355
Ar             -3.8624572              1.5167775             -4.6173756
Ar             -3.2149295             -3.8530499             -1.5146041
Ar             -2.2496008              3.5752703             -1.6800489
Ar              3.5330441             -3.3166495             -2.0900888
Ar             -1.9503789             -5.7208627             -4.4927070
Ar              1.8545190             -4.1419889              1.2964778
Ar              2.7552885              4.9152937              3.7016200
Ar             -2.5113413              1.9962507              1.8746668
Ar              1.5140425              4.0311566             -2.5211294
Ar              0.9629447             -5.6581757              4.5398783
Ar              1.8181762             -5.2964077             -4.9399346
Ar             -1.7131729             -4.9216165              1.6008270
Ar             -3.2073321              5.7264549              1.6237625
Ar             -1.0804541              4.0933028             -5.4185148
Ar              0.9998574              6.4455568              6.6531070
Ar              0.4436818             -7.9021862              1.5117337
Ar             -3.0019160             -0.1253415             -1.2136442
Ar             -2.3538117             -7.4020992              4.2403622
Ar             -0.1795953             -7.3736840             -7.3942279
Ar              3.0378335              6.7188214              0.2859250
Ar             -2.7722567             -7.5903290             -0.8348679
Ar              3.6056941              2.9480558              0.4755428
Ar              0.3547667             -5.7794192             -1.5917455
Ar              0.0941239              7.5720669              3.0700341
Ar             -0.9557394              0.3801537             -7.2211108
Ar             -0.5678684             -3.5802651             -7.4366246
