42
Energy:            -185.0848
Ar              0.0987977             -0.2355834             -0.2989974
Ar             -2.6425613              1.5875219             -1.6401378
Ar             -2.5333312              0.7644443              1.8722784
Ar              2.9965386              1.6376810              0.0437042
Ar              2.7484001             -1.8736766              1.5328296
Ar             -2.9834885             -1.9105258             -0.5877478
Ar              2.7064737             -1.1016143             -2.5473622
Ar              4.8318332              0.7747223              3.0927347
Ar             -0.7867127             -2.4729299              2.4346234
Ar              0.9390817              1.0901660              3.1079949
Ar              0.7495031              2.3488332             -2.9053782
Ar             -4.8259771             -0.6535339             -3.5163631
Ar              2.1152622              0.4867223             -5.8146098
Ar             -4.5878938             -2.1875177              2.7308762
Ar              5.8803020             -0.4413661             -0.7276127
Ar              6.3244641             -2.7107590              2.1581033
Ar              4.5217099              2.2484569             -3.2250748
Ar              0.2146035             -3.6933977             -1.5149763
Ar             -4.0976070              3.9473046              0.8141147
Ar             -5.6177246              3.2324984             -2.7961384
Ar              2.9465831              4.2521589              2.5948006
Ar              4.2247017             -4.1101096             -0.9210794
Ar             -6.2973101             -3.2776034             -0.7936048
Ar             -5.7961426              0.4992259              0.0716956
Ar              1.7057703             -1.7405945              5.2389561
Ar             -0.9764275             -0.9813393             -3.8095589
Ar             -5.3957970              1.6069551              3.8626505
Ar             -1.9437475             -0.3123777              5.2952269
Ar             -2.3439865              2.2758828             -5.1943766
Ar              6.1238147              3.3942654              0.2750389
Ar              2.7527826              5.0800531             -1.1973323
Ar             -2.5257124             -5.2936990              0.6887344
Ar             -0.0308809             -5.0898429              4.9305648
Ar             -0.2682903              3.5062195              0.5535529
Ar             -3.1424956             -4.2321265             -3.3420683
Ar              3.7516442             -4.6042985              4.0871926
Ar             -1.9906888              5.0685316             -2.4494564
Ar             -1.8256375              3.5595945              4.0724876
Ar             -6.7092995             -3.7145745             -4.5509499
Ar             -5.9306145              1.6502421             -6.2433060
Ar              1.3380125             -5.4590419              1.4390167
Ar              5.7669466             -1.0521396             -4.5705658
