42
Energy:            -185.3673
Ar              2.0871821             -1.0814323             -0.7737281
Ar             -1.1493527             -2.3693201             -1.6104565
Ar             -0.7145161              0.9926464              0.4751266
Ar              0.3836623             -3.7190991              1.3277933
Ar              2.5185486              2.4782634             -1.5538685
Ar              5.4255789             -3.7022808             -0.3314404
Ar             -3.0366186             -1.8076202              1.4140170
Ar             -3.6843396              0.3212723             -1.6733631
Ar              2.7078494              1.3855143              2.0458200
Ar              3.6180239             -2.1703034              2.4613922
Ar             -2.9481221              5.0783990              1.5365872
Ar             -4.1870427              1.6633226              1.8056772
Ar              5.4676268              0.1676203             -0.3043547
Ar             -1.0448915              2.6676179              3.8397925
Ar              0.7587535              4.3402406              1.1161799
Ar             -5.1776060              3.6356627             -1.3020900
Ar             -1.4395248             -5.4619507             -3.4013199
Ar              0.1921399             -0.8838942              3.5850461
Ar             -0.4398383              6.6135032              3.8273736
Ar             -2.7257092             -5.4057774              0.4106052
Ar             -0.2963022             -6.9977080              3.0725537
Ar             -0.3030779              0.7930370             -3.1872798
Ar              2.1056490             -4.5601398             -1.9051606
Ar              0.7050989              3.9943636             -4.7227275
Ar             -2.7679799             -1.4976605             -4.8554169
Ar             -1.4597691              4.0360982             -1.6921949
Ar              2.9233047              0.9631931             -4.9836254
Ar              2.4497640              4.2798718              4.4262972
Ar              3.1773510             -6.0167184              1.6313707
Ar              2.1135686              6.1301546             -1.8812025
Ar             -3.2461930             -0.3055347              4.8743712
Ar             -4.6641163             -3.3158049             -2.0309377
Ar             -2.0695445             -3.9246762              4.2391027
Ar              4.5241150             -1.9761355             -3.4494220
Ar             -3.9711387              7.1167972             -1.4866868
Ar              0.9559262             -2.3672731             -4.6714922
Ar             -0.6303493              7.6482198              0.1056211
Ar              1.6503707             -4.2669006              4.8185006
Ar              2.8007412              7.2863808              1.8309331
Ar             -0.9987938              7.1795759             -3.7220369
Ar              0.2731383             -7.4094461             -0.5597978
Ar             -3.1900646              2.6288870             -4.6404627
