42
Energy:            -188.0427
Ar             -2.1499464             -0.5689269              1.3180723
Ar             -2.8649626              0.8753342             -1.9620726
Ar              3.5979965              1.8450373              1.7463872
Ar              3.1556532             -0.0112958             -1.4384277
Ar              0.4490310              1.1962259             -3.5197998
Ar             -1.5440504             -2.3070592              4.4106562
Ar             -5.5287600              0.8921981              0.8359307
Ar              0.0095762              1.2496067              3.7212944
Ar              1.6137725             -1.4891510              1.7534233
Ar             -3.7305929              0.9237489              4.3169363
Ar              2.8823729             -1.4721923             -4.8136703
Ar              1.8225737             -1.5634530              5.6002373
Ar              4.3446490             -3.4475224             -1.8971964
Ar             -1.9429921             -4.1960427              1.1571546
Ar             -2.4758508              1.3912342             -5.7320630
Ar              2.4726627              3.9396716             -1.7839059
Ar             -1.2650593              4.2645160             -1.9202559
Ar             -1.1894934              0.2615082              7.1191570
Ar             -5.8852626              1.6884842             -3.9915004
Ar             -0.7625581             -1.9105955             -5.2283891
Ar              1.3170450             -4.6868876             -3.8276097
Ar              6.1906907             -0.9239262              0.3652440
Ar             -4.4335663             -1.8655520              6.7278576
Ar             -0.1311369             -1.8201887             -1.5278354
Ar              5.8902980              2.5035527             -1.2912915
Ar              0.2687277              4.3018916             -5.3787496
Ar              4.9815568             -0.8779073              3.8691634
Ar             -4.3250826             -1.6886925             -4.4286638
Ar              0.3399540              1.6494845              0.0852894
Ar              3.8679134              2.1232416             -4.6781325
Ar             -2.6102138              3.1879935              1.5446816
Ar              1.0747875              0.9434548             -7.1338584
Ar              3.1514204              1.9785436              5.5501663
Ar              1.1317471             -4.7355591              3.5779731
Ar             -3.6340359              4.7437353             -4.7240585
Ar             -4.9910983             -2.3798732              2.9218508
Ar             -4.9574598              4.0153475             -1.2319576
Ar              6.2881426             -0.5763388             -3.4490912
Ar             -4.5788769             -2.3294935             -0.8183773
Ar              1.4074533             -4.9017789             -0.1402730
Ar              4.4370278             -3.9582893              1.8465726
Ar             -2.2666716             -4.5456009             -2.7232193
