42
Energy:            -179.1661
Ar             -0.2153333              0.9593693             -0.0775858
Ar             -2.2377511              3.7181975             -3.1429044
Ar              1.5555569             -1.3063046             -2.4565880
Ar             -1.3015634             -2.6660077             -0.5949396
Ar             -1.2492346             -2.1076499              3.1180848
Ar             -1.8340363              1.4287103              3.2769874
Ar              1.9836302              1.1112194              2.7453626
Ar              3.3196794              1.5103321             -0.7275978
Ar              1.9851287             -2.0469014              1.0483204
Ar              4.3245487             -0.3458606              5.2731817
Ar             -0.8478709             -3.3724694              6.8114045
Ar             -1.7770872              0.0737018             -3.2099541
Ar             -4.4393362             -3.3644761              1.2587942
Ar              1.1644534              2.2413008             -3.5923462
Ar              0.6210079             -0.0683774              5.8535235
Ar              1.0801632             -0.8629642             -6.0257052
Ar             -3.7048123              0.1315577              0.1533808
Ar             -1.2092836              2.0099737             -6.4416964
Ar              2.5902348             -2.2487674              8.1326767
Ar             -3.9005062             -0.7248560             -6.0370581
Ar              5.0487195             -1.7810315             -1.1276300
Ar              3.7644073             -3.3036967             -4.5899677
Ar              5.6737685              0.7270378              1.9508978
Ar              5.4219465             -3.8621565              6.1961988
Ar             -2.9823136             -0.2499492              6.4700849
Ar              4.3651053              0.4199926             -4.2354111
Ar             -2.6494856              3.7676186              0.5440458
Ar             -4.4912626             -2.4132712             -2.5641351
Ar              2.7632891              3.1577527              5.6670758
Ar              6.9315239              1.4890345             -1.5810689
Ar              5.2863065             -2.9185980              2.5346424
Ar             -1.0181638              3.2147951              6.4374654
Ar             -1.1614355             -3.3689211             -4.3282508
Ar              2.6075641              2.4233457             -7.0237729
Ar              0.9181170              4.4524963             -0.6206687
Ar              0.2745395              4.4380081              3.0476439
Ar             -4.7122705              3.1353407             -6.1263809
Ar             -5.1637007             -0.3624976              3.4780019
Ar              3.8926344              4.1467212              1.9176580
Ar              2.0772262             -3.2730472              4.5065772
Ar             -5.2731678              1.3137128             -2.9608061
Ar             -4.1358837             -3.6248065              5.0297730
