42
Energy:            -182.1767
Ar             -0.6601086             -0.3147765             -1.1623948
Ar             -2.1549576              2.9516194             -0.3414954
Ar              1.5723725             -3.1762431             -0.7414034
Ar              0.5911948              5.2679120             -0.1578066
Ar             -2.8212496              6.5233831              0.3688089
Ar              3.6686885             -6.1002982             -0.2453481
Ar              4.3063079             -2.8421902              1.7029025
Ar              0.9278266              2.0166051              1.2961042
Ar             -1.7782177             -3.2463846              0.5405501
Ar              4.1348999              1.0145981              2.7641843
Ar             -4.0348792             -1.7616445             -2.0975326
Ar             -2.4625998              0.2513825              2.1241221
Ar             -4.7741909              3.8058789              2.1455007
Ar             -5.3493924              1.1076324             -0.3208598
Ar              2.6057314              4.9596848              2.9507121
Ar              2.2343893             -5.2932259             -3.6888145
Ar             -1.1947325              4.4529494              3.0713677
Ar             -5.1686040             -2.3529416              1.5126313
Ar              4.9395364             -3.0186982             -2.1867508
Ar              1.7880375             -1.2356043             -3.9094289
Ar              3.9335411              3.7039970             -0.3661843
Ar              0.9738800             -5.0016880              2.4387228
Ar              3.3967061              7.5693277              0.1368707
Ar              2.1662917             -8.8904263             -2.2362110
Ar              1.4843000             -8.5809042              1.5985998
Ar             -1.1074153             -3.5942424             -3.2615860
Ar             -2.4680281             -6.4887616              2.1726793
Ar             -1.4645054              5.2494085             -3.2251594
Ar              3.2634484              0.0349657             -0.7188695
Ar             -0.2516563             -6.3801227             -0.9039075
Ar             -2.5448925             10.2330728              0.4421051
Ar              0.1497853              8.0260396              2.2034944
Ar             -5.0053050              4.5559745             -2.0082383
Ar              0.9418422             -1.3593222              2.4356123
Ar             -2.7871997              1.5650913             -3.6340734
Ar             -3.9674187             -5.4973954             -1.3085809
Ar             -2.0520433             -3.0701955              4.1472719
Ar             -3.7051380              8.2515616             -2.7695907
Ar             -0.0177818              8.4952150             -1.7051293
Ar              1.0562899              2.4996782             -2.6261332
Ar              4.2870956             -6.3643880              3.4190442
Ar              2.4324988              5.9612953             -3.2523218
