42
Energy:            -182.0044
Ar             -0.4684019              0.4377058             -0.3032705
Ar              2.9374268              1.8307264             -0.4005220
Ar              2.3737856             -1.7264145              0.0692970
Ar             -2.7128998             -4.4809499              0.8267999
Ar             -3.4153340              2.4119681             -0.2059183
Ar             -0.1689389              4.0841620             -0.6795476
Ar             -3.5899940             -0.6894762             -2.0968245
Ar             -3.7007996             -0.7966287              1.5861289
Ar              5.4128437             -0.6818215              1.7928208
Ar             -5.9969627             -3.0426798             -0.2933566
Ar              1.2927064             -5.2093558              0.5015553
Ar             -0.6155941             -2.9218901             -1.6845244
Ar             -1.6264988              2.0392345             -3.5561617
Ar              2.9917754             -3.2928614              3.3569230
Ar              5.0830839             -4.1508919              0.1262797
Ar              1.8522081              3.5422179             -3.6939670
Ar              1.6428814             -0.1723613             -3.2870521
Ar             -5.5833062              2.5285320             -3.1488584
Ar             -1.3916827              1.8522689              2.9484842
Ar              7.5953809              1.5043388             -0.2105808
Ar             -0.3942157             -2.0525385              2.4139695
Ar              5.1184367              3.1018596              2.2352197
Ar             -5.1545780              2.4430140              3.0308694
Ar             -3.3815816             -3.2179603              4.3882014
Ar             -6.7061714              0.7031864             -0.0749418
Ar              1.5248597              4.2221274              2.5380912
Ar              5.2050781             -0.7948661             -2.0554030
Ar              2.8166083             -3.7901909             -2.9472176
Ar             -6.2716585              4.6426774              0.0618229
Ar             -0.3289282             -5.4563426              3.8556735
Ar             -1.2931826             -1.6508569             -5.0261089
Ar              2.1465855              0.5699081              3.0223963
Ar             -2.6724059              5.3150808              1.8639183
Ar             -4.3427216              0.2427316             -5.7552327
Ar             -6.9857231             -1.1432254             -3.4255189
Ar             -3.8330631             -4.1525370             -3.2155882
Ar              7.0667177              5.2246325             -0.2486885
Ar             -3.2640879              5.4349932             -2.2796088
Ar              6.7447645             -3.7606844              3.5113177
Ar              5.4344433              2.9760607             -2.8696507
Ar             -3.8600708             -6.8708486              3.4739994
Ar              3.3499954              5.4547122             -0.6247328
