42
Energy:            -190.7505
Ar              1.7916078              0.2759285             -1.3496926
Ar             -1.0823099              2.4986824             -1.1791742
Ar             -0.9771092             -1.1199632              1.2772925
Ar              4.5648049              1.5645697              1.1292459
Ar              1.2817461             -3.2416841             -0.7963691
Ar             -0.9374742              0.2376507              4.6850110
Ar              2.3649678              3.9831731             -0.8802590
Ar             -2.6204311              2.6502684              2.3376050
Ar             -3.8585130              0.3862739             -0.3237366
Ar              1.2209499             -4.8761341              2.5719558
Ar             -2.0731362             -2.3932715             -1.8648664
Ar              0.9264746              1.8954056              1.8254877
Ar              3.9369329             -0.6622169             -4.7018008
Ar             -4.4290892             -0.4571469              3.2356193
Ar              2.9443846              1.1316797              4.7572455
Ar              2.6130946             -1.4261567              2.0271335
Ar              0.4962201             -1.6897851             -4.2957479
Ar             -2.9247337              4.1161679             -4.1969046
Ar             -5.5629763             -1.6900965             -2.9000431
Ar             -2.9199821             -3.0630936             -5.3819173
Ar              3.4378590             -4.2753076             -3.4808664
Ar             -4.5319711             -3.1866883              0.7276144
Ar             -2.5908823              0.4979117             -3.9751172
Ar              4.9343684             -1.5137427             -1.1598492
Ar             -5.8776418              2.2713545             -2.6282191
Ar              3.1673930              4.6455413              2.8201229
Ar             -0.3505074              5.3887993              1.3214806
Ar              6.2607046             -1.6027437              2.4228703
Ar              1.8064619             -6.8715934             -0.7804406
Ar             -7.3316341             -0.7142510              0.3167586
Ar             -1.5932301             -5.3927869              0.2629193
Ar              1.4656382             -2.4550518              5.4004118
Ar              5.0153461              2.0793764             -2.5449756
Ar             -3.7745012              4.8553536             -0.5608936
Ar              4.4521031             -4.6113497              0.7341491
Ar             -0.4041753             -5.3006566             -3.4496817
Ar             -6.2300664              2.7043515              1.3394159
Ar              0.9258358              2.3243891             -4.2736140
Ar              0.0524180              3.8639655              4.8364189
Ar             -4.2144265             -5.2977611             -2.5157953
Ar             -2.0771157             -3.4856671              3.7892861
Ar             -0.3583105              6.0036830             -2.3769867
