42
Energy:            -181.7606
Ar              0.0158088              0.0200489             -0.5502965
Ar              0.1660176              1.3770337             -3.7680728
Ar              2.1140961              1.5501185              1.9758247
Ar             -0.1683447             -1.6087476              2.5006462
Ar             -2.1237268             -1.4539714             -3.0347629
Ar             -1.8616463              1.7810118              1.9697430
Ar             -2.8891651              2.0572019             -1.6477434
Ar             -0.3583101             -3.7446721             -0.4377325
Ar              0.5120114              3.6716569             -0.8052416
Ar              1.6002450             -4.7180411              2.9981854
Ar             -3.3121939             -0.7797387              4.2643698
Ar             -3.8658811             -3.6204162              6.5852010
Ar              1.7425968             -1.9075355             -3.0483129
Ar             -3.4903027             -2.6121778             -6.2669577
Ar              0.0101775              0.8423990              4.9987996
Ar             -3.3114872             -1.4009705              0.4926993
Ar              0.4110903              2.4214508             -7.2171800
Ar              3.2454854              2.4239928              5.5320479
Ar             -3.1089984              1.1857083             -5.3898661
Ar              3.3304713              1.2422418             -1.6967793
Ar             -2.9901843              2.8982131              5.4263849
Ar              0.2154783              4.3321008              3.7195712
Ar              2.9569193             -2.0391220              0.5035369
Ar             -2.4890398              5.2017794              0.7780344
Ar              3.0837764             -4.1271286              6.6446655
Ar              1.8814068             -0.4715985              7.8541433
Ar             -2.9291181              3.9550486             -7.8599143
Ar              3.2904890              0.4524189             -5.5192230
Ar              2.4663272              4.1226607             -4.2191668
Ar              2.5881065             -5.3403127             -2.1024503
Ar              2.6361557             -3.9429620             -5.9772032
Ar             -0.6369304             -4.4747286             -7.9889003
Ar             -0.0293736             -1.2671543             -6.2383467
Ar             -1.4760073              4.5605761             -4.2650286
Ar             -0.3112109             -2.8521338              5.8716997
Ar              3.0380125             -1.2642624              4.2790925
Ar             -0.6549433             -4.6022395             -4.1864841
Ar             -2.4884061             -4.3537540              2.9017193
Ar              0.1295549              3.1671963              7.7621216
Ar             -3.7430144             -4.5323607             -1.7519045
Ar             -2.1055830             -0.1436999              7.8259447
Ar             -2.2596733              0.1431480             -8.8544886
