42
Energy:            -178.8821
Ar              0.0904238             -0.8955671              0.1491236
Ar             -2.1624281             -3.2037717              1.8554257
Ar              3.4773699              4.4052320             -1.1132515
Ar              0.3545578              2.2843555             -1.5642720
Ar             -2.2834664             -3.1088259             -1.8606726
Ar              2.9756445             -2.4899878              2.0594998
Ar             -3.0385179              0.3199762              1.8471351
Ar              3.1893325             -2.1594290             -1.6956330
Ar              0.1859126              2.2541268              2.0623121
Ar              3.2905371              0.9808105              0.3185878
Ar             -2.8865275              0.5796905             -1.8197618
Ar              3.8650428              0.6090170              3.9047339
Ar             -2.2720111              2.1242708              4.9479729
Ar              3.2117697              4.1516639              2.6384208
Ar              0.6884782             -4.4544798             -0.0359877
Ar              0.2398793             -0.8701276             -3.5643026
Ar             -2.4109478             -4.9775087             -5.1518488
Ar             -2.6833751              4.3302898             -2.0514926
Ar              0.1409054              5.4887908              0.1902012
Ar              0.9772855             -4.5028842             -3.6753284
Ar              0.1702114             -0.8159767              3.9252084
Ar             -3.0294997              4.0567622              1.6640050
Ar             -4.2787318             -5.8631832              0.5340395
Ar             -0.2662755              5.4314954              3.9308437
Ar              0.4428605             -4.5451225              4.0367436
Ar              0.8517535              5.1775061             -3.7069848
Ar              2.3313178              7.9742313             -1.6087115
Ar              1.9939831             -7.5759929             -1.5069986
Ar             -1.4153966              7.8638821             -2.2827985
Ar             -1.6327569             -6.7734378             -1.9130625
Ar              3.0143831             -6.4033326              2.0374322
Ar              2.2906535              7.7573566              2.1931330
Ar             -3.2021781             -1.7536094              5.1175502
Ar             -1.3230528              2.2448766             -4.9115930
Ar              2.9332757             -2.4349450              5.8923496
Ar              3.3119509              1.3448623             -3.4871761
Ar              0.1897013             -7.9222932             -4.9686787
Ar              1.3247627              2.5087141              5.6897618
Ar             -3.1231330             -1.2260637             -5.1073233
Ar             -0.8837369             -7.2201060              1.7573812
Ar             -2.3994057              5.8911548             -5.4547838
Ar             -3.2160821             -5.6569119              4.3711165
