42
Energy:            -182.3209
Ar              0.4581156             -0.3046926             -0.0884963
Ar             -2.8595796              1.2572969             -0.1969742
Ar              2.5017638             -3.2856171             -0.5986454
Ar             -0.0933290              3.3026370              0.5528915
Ar             -2.6130530             -1.8482427              1.5888382
Ar              0.8138229             -2.2038932              2.9810156
Ar             -1.0250811             -4.3842506             -0.4306760
Ar              0.8769377              5.3944556             -2.2826741
Ar              1.6917424             -5.7539031              2.0726448
Ar             -2.8165820              4.7344186             -1.5659850
Ar             -1.2287140              1.0755115              3.2741930
Ar             -0.7293424              6.8221903              1.1280956
Ar             -0.4983164              2.0112676             -2.9822128
Ar             -1.9340605             -1.4155432             -2.6031109
Ar              1.8466341             -6.8180774             -1.5205846
Ar             -1.7863559             -5.0918787              3.2112556
Ar              2.4416166              1.4199076              2.4504985
Ar             -4.2707685              1.5246225             -3.5350793
Ar             -4.0538967             -4.4147531             -2.7694431
Ar              4.7097851             -0.4518027              0.0657321
Ar             -1.1241094             -7.9011457              0.6397812
Ar              4.6207450              5.5508027             -2.0501409
Ar              4.4030237             -3.0828964              2.6976302
Ar              0.5362049             -3.9718002             -3.7790535
Ar              2.8135578              5.3561662              1.2345674
Ar              2.8749815              2.3881195             -1.2164423
Ar              5.7502875              3.0852860              1.0021225
Ar             -6.0692848              2.9391873             -0.3869988
Ar             -3.2967903              4.1164944              2.2060197
Ar              2.2101220             -0.6086381             -3.3244657
Ar             -5.3891232             -1.2844269             -0.9140751
Ar             -4.5087584             -7.8458691             -1.0757797
Ar              2.6584710              3.1376729             -4.7915522
Ar             -4.7542720             -4.6910803              0.8683674
Ar              5.7735291              0.3714351              3.6643501
Ar              0.4170452              4.4088087              4.0072111
Ar              4.2778122              3.9417377              4.4269260
Ar             -4.2609669             -7.9315693              2.7354809
Ar             -5.1283820              0.7262306              2.6316285
Ar              2.1869389              8.4878475             -0.7529403
Ar             -1.4590147              8.2936591             -2.2385520
Ar             -1.4802493             -7.0975703             -3.1179626
