42
Energy:            -186.1303
Ar              0.7414539             -0.3598474              0.1319067
Ar             -1.3350904              0.7695191              3.0609960
Ar             -2.4265810             -0.7078141             -2.6311316
Ar              1.1615216             -0.9481165             -3.4642835
Ar             -0.2229268             -0.6817176              6.2008090
Ar              2.2895307              0.2576912              3.4318859
Ar              4.2070199             -2.8559801              2.5065405
Ar              1.2215957              3.1355515              1.0657755
Ar             -3.6170687              2.7454348             -3.5674173
Ar              3.4171687              1.4336798             -1.7873477
Ar             -2.5343011             -1.8025587              0.7764510
Ar             -2.9965234             -2.5366235              4.3617630
Ar             -2.0013785              4.4525143              2.5246604
Ar             -2.9407251              1.8794634             -0.0060865
Ar             -0.1533222             -3.6497775             -1.4168777
Ar              2.0478089             -5.4712221              0.8877553
Ar              3.0233453              1.1578120              6.9802883
Ar             -0.1516653              2.1672393             -2.3578478
Ar              2.3845560             -4.2727248             -4.2580376
Ar             -1.3033736             -3.1267599             -5.1577638
Ar              0.6730140              3.2648738              4.9262372
Ar              0.4257782             -2.7703933              2.8693041
Ar              2.3673885              2.1529763             -5.2570806
Ar              4.3315518              3.2337488              3.8852640
Ar              1.7720353             -1.4667471             -7.0098945
Ar             -1.0490920              0.8023592             -5.7983647
Ar             -4.5369274             -0.4195396             -5.6695763
Ar              2.9282966             -2.5618122              5.9438731
Ar              4.6646335             -0.9774137             -4.4878474
Ar              4.7554287              4.2184748              0.2944032
Ar              3.5673076             -2.4064650             -1.0866567
Ar              2.1539230              4.9754509             -2.3791023
Ar             -1.9089168             -5.3443124              1.5690816
Ar             -5.0739057              0.1371084              2.6334741
Ar             -1.5383448              5.2830760             -1.1771719
Ar             -3.5663341              3.0915804             -7.2867222
Ar             -0.2920783             -4.6025761              5.9801787
Ar             -3.8115750             -4.1367116             -1.8452171
Ar             -0.6563105              4.5713700             -5.0794331
Ar              5.7614210             -0.2508923              4.8306045
Ar             -5.4698211             -3.7698552              1.7070587
Ar              5.2044411              0.5137396              1.2082123
