42
Energy:            -178.0734
Ar              0.3808550             -1.0313125             -1.1340074
Ar             -3.0017783              0.9645476             -1.9199646
Ar              3.4507598              0.3229871             -2.3003483
Ar              1.9598036              2.0568731              0.6066538
Ar              6.3680676              2.0254985             -3.7549365
Ar             -1.3795853              1.0340950              1.3058012
Ar             -6.6133677              1.9391373             -1.5002216
Ar             -3.8815886              3.8038869              0.4855190
Ar             -5.5342052             -1.9267802             -1.5627886
Ar              4.3002009              2.1062949              3.4404941
Ar              0.1190825              1.3948649             -3.9247192
Ar             -4.8282208              0.2818792              1.2455311
Ar              0.5543800              1.4294961              4.3459894
Ar              1.5355797             -1.9456833             -4.6721234
Ar              4.0206774             -0.9847748              1.2634593
Ar             -2.5191372             -2.5404002              0.4335838
Ar              0.6294671             -1.8928023              2.4574738
Ar             -2.2085086             -2.2066427             -3.5586941
Ar              5.5346974              2.4959571             -0.1345226
Ar              3.3135591              1.3445178             -5.8613660
Ar              2.9286999              3.8709769             -2.7334376
Ar             -0.6292811              3.8559241             -1.2999494
Ar             -3.5151096              2.4752998              4.0122183
Ar              3.1954012             -1.1005456              5.0522716
Ar              3.3907315             -3.2892186             -1.6922516
Ar             -2.7739811             -1.2261198              3.9858426
Ar             -7.0998939              2.9671465              2.2868125
Ar             -0.5632321              4.4653738              2.4117830
Ar             -8.8152285             -0.7993541             -2.8613049
Ar              5.3675402             -1.6872990             -4.7374467
Ar              6.2756328             -2.7908108              3.9012655
Ar              6.2247325             -4.2226941              0.5088553
Ar             -8.5357812             -3.8875837             -0.5153346
Ar              6.6158333              0.4151436              5.8517364
Ar              9.1173469              1.7725166             -1.0866513
Ar             -5.8559625             -3.1191380              2.1429563
Ar             -5.3768496              0.0800038             -4.6638393
Ar             -8.3834047             -0.4295684              0.9524715
Ar              7.4781108              0.2845832              2.1334722
Ar              6.6932004             -1.0318656             -1.3031791
Ar             -6.4629310             -0.1159975              4.4828367
Ar              9.0293720             -0.5946071             -4.1801134
