42
Energy:            -187.5367
Ar             -0.8037043              0.0487904              0.0189013
Ar             -2.1406774             -2.7827401              3.5672918
Ar              2.1004122             -0.3266949              2.3053291
Ar             -0.4540173             -2.8176500             -2.4345214
Ar             -0.7702246              3.6334791             -1.3226582
Ar             -0.0697883              0.7022629             -3.4933063
Ar              2.1499440             -2.3851153             -4.9706968
Ar              0.6757666             -1.2970013              5.6636921
Ar              0.3051983              2.5761136             -6.6415521
Ar              0.5515906              3.0403646              1.9124089
Ar              1.8184969              2.2529247              5.2239411
Ar              0.4086363             -3.3948666              0.9660814
Ar             -1.6394797              0.8008557              3.6399042
Ar              2.4476276              5.5802366             -0.1165310
Ar             -1.5339033             -2.0095598             -5.8355163
Ar             -1.6334686             -6.2669800              2.3742522
Ar             -3.1767762             -3.5741686              0.0428165
Ar              1.3402994             -4.6725686              4.2572142
Ar              3.5221515              1.0109562             -4.4089991
Ar              2.5217744             -5.0747507             -2.0508726
Ar             -3.5337586             -0.9732530             -2.6194329
Ar              1.8911211              4.2986665             -3.7361729
Ar             -4.3149241             -0.1334242              1.0534622
Ar             -3.5816825              6.1345689             -1.2559017
Ar             -0.8846238              6.4281398              1.3562471
Ar             -1.3540698              4.4653278              4.7131902
Ar             -0.0029285             -5.5072989             -4.9399528
Ar              2.1054760              5.8330725              3.7258988
Ar              2.5335174              1.9935878             -0.9231119
Ar             -3.1871975              1.3261430             -5.5445250
Ar              4.2138523              2.9427314              2.2967973
Ar              1.9175818             -6.8403002              1.1972975
Ar             -4.1930807              2.5281096             -2.0186961
Ar             -1.2859570              1.5943757              7.2671603
Ar             -2.1009809              4.6880281             -4.5158212
Ar             -3.4685454             -4.6056177             -3.6493972
Ar              4.0088629             -3.6408196              1.5405465
Ar              0.5362751              6.5802426             -6.3254508
Ar             -0.9400624             -6.3150152             -1.3045143
Ar              2.7622772             -1.5063147             -1.3272256
Ar             -3.1766364              3.4302327              1.4920938
Ar             -0.1290994              7.1751871             -2.4170989
