42
Energy:            -182.6217
Ar             -1.0624121              1.4217724             -0.3846684
Ar             -4.6749293              0.9383907              0.5202719
Ar             -0.8735012              2.1875385             -4.1434474
Ar              2.2489092              1.5786353              1.3757507
Ar              0.2153252             -0.8365732              3.1060283
Ar              2.1292055              1.4800146             -2.1891018
Ar             -2.2874221             -1.8265726              0.7103325
Ar              1.4889967             -1.5614113             -0.3205148
Ar              0.2734473             -1.3996312             -3.8164592
Ar             -0.7269479              2.9097723              3.0665859
Ar              0.1903011             -4.5288527              1.3337103
Ar             -1.8156824             -4.0642933             -2.1067735
Ar             -2.2200685             -3.5111719              4.1019283
Ar              2.2054686              4.6519741             -3.9006588
Ar              0.8790622              4.5903669             -0.2767718
Ar              3.9479575             -1.4666336             -3.5054079
Ar             -2.7640566              4.6506043              0.4317770
Ar             -3.1391643             -0.5198654             -2.7486661
Ar              2.7307687              4.7782978              3.0428515
Ar              3.6555281             -5.4322399              2.3942956
Ar             -4.6136069              3.5227496              3.4148232
Ar              3.8370009             -1.5363832              2.7066878
Ar              4.4870127              3.8948651             -0.4577408
Ar              1.8508003             -4.6326986             -2.2972532
Ar             -4.1561313              3.0448450             -2.5762837
Ar             -3.1857006              0.1592935              3.8996450
Ar              5.3816348              2.1653883             -3.7379932
Ar              4.8448364             -3.4162837             -0.4334398
Ar             -6.5433221              4.1581454              0.1975080
Ar              2.3608931              1.1744669             -5.8461558
Ar             -5.5331294             -2.3666669              2.5489855
Ar             -3.5278255             -5.3366167              1.0616856
Ar              5.5468768              2.0604365              2.8797654
Ar              5.2000107              0.2404463             -0.4165140
Ar              1.5098457             -3.7356202              4.9233665
Ar             -5.4249190             -2.8819538             -1.1259018
Ar              6.3170225              5.7330475              2.2277979
Ar              5.7154664              5.9450214             -3.3238621
Ar              5.2847861             -4.9768956             -3.8579494
Ar             -1.3932665              5.6664636             -2.9908389
Ar             -4.8436382              6.7531389             -1.9495446
Ar              2.4366865              1.4452908              5.0405136
