42
Energy:            -177.3849
Ar             -0.1254669             -0.6218345             -0.9539777
Ar              0.0906678             -3.2567183              1.5193431
Ar             -2.1631586             -0.4332386              2.4862353
Ar              0.9450451              1.4609821              2.3201381
Ar             -0.3471222              2.0059449             -3.5524430
Ar              2.3367328             -1.4290061              4.0810478
Ar              2.1968983              2.5534874             -0.9312024
Ar              3.0986377             -3.7474377             -1.6788612
Ar             -0.8271550             -1.3767931             -4.7555126
Ar             -1.6758021              2.5148665             -0.1290006
Ar              0.0317079              5.3857062             -2.1337103
Ar             -0.8102965             -2.9493990              5.2381860
Ar              3.6266674             -4.3035043              1.9910249
Ar              0.6597727              5.0367163              1.4603037
Ar              2.6632386             -0.2594142             -3.3451496
Ar              3.2653425             -0.8016422              0.5011569
Ar             -3.4820039              0.2251560             -2.5989968
Ar             -1.4944950              6.9158658              3.8658435
Ar             -3.5029700              3.9814992             -3.0023093
Ar             -3.0086602              1.6236955             -6.0702034
Ar             -3.5797696             -3.9785384              3.1149030
Ar              1.0253201              4.1371047              5.0682237
Ar             -0.4840509             -4.0430796             -2.2244301
Ar             -1.0402482             -4.9480438             -5.9626919
Ar             -2.2488706              3.2792094              3.4015764
Ar              2.2740319             -3.4217375             -5.2850486
Ar             -3.2851474             -2.5724093             -0.2749991
Ar             -0.4565772             -6.3114977              3.4976345
Ar              2.3972128             -4.9152043              5.4942256
Ar              1.5351992             -6.7665314             -3.7046700
Ar             -2.4030874             -6.1013873              0.2937132
Ar             -3.9416026             -7.7499187              3.3267911
Ar             -0.4862861              0.7371019              5.6826479
Ar             -1.0164203              4.9725224             -5.7043443
Ar             -2.2760945             -7.1613675             -3.2437428
Ar             -2.8167366              6.0028767              0.3216365
Ar              2.2734909              7.5014453              3.7947962
Ar              2.9745853             -7.8498441              3.1394030
Ar             -2.7101477              7.6226743             -3.2721378
Ar             -3.8126760             -3.5157166             -3.8272659
Ar              2.6719449              3.8382160             -4.4820543
Ar              1.2534588             -6.5398561              0.0501754
