42
Energy:            -183.1693
Ar              0.3218059             -0.0253136              0.1585335
Ar             -0.3308960             -3.5737436              0.9682499
Ar              1.0524049              3.4982898             -0.5583021
Ar              0.6502447              1.0260522             -3.4465558
Ar             -0.0472752             -2.4604106             -2.5525906
Ar             -2.7548447              0.1944961             -2.0050074
Ar             -0.1647726             -1.0742750              3.7149867
Ar             -2.2543504              2.5320426              0.7576323
Ar             -2.2033625              6.1362661              0.3745561
Ar              3.2977433             -0.1684016              2.5296833
Ar              1.2108292              6.1844033              1.8773185
Ar             -3.5694215             -4.7921517              2.1807891
Ar              0.6537299              2.3964317              2.8995247
Ar              2.8877746              3.9913828             -3.7152355
Ar             -0.9463897             -6.2158708             -1.5386412
Ar              2.0279862             -5.2478713             -3.6344586
Ar              2.4823528             -6.0932448              0.0472284
Ar             -1.8780135              3.8101944             -2.7704279
Ar              3.4614543             -1.5505568             -3.8124726
Ar              0.5471972              6.7671731             -2.1423726
Ar             -0.5051386             -7.1487758              2.0861963
Ar              4.0138594              3.4192784              1.9015909
Ar             -3.0762664             -1.0870860              1.4567398
Ar             -1.5881033              5.0161883              4.0685107
Ar              2.6083115             -3.8245248              3.1886824
Ar             -3.5637075             -2.1496844              5.0001764
Ar              3.7431546              1.0990551             -1.1212742
Ar              2.9814314             -2.4917245             -0.3127474
Ar             -3.4414786             -3.4434035             -1.4229872
Ar              2.6332109             -1.2935949              6.0901800
Ar             -2.9080055              1.4883160              4.2171351
Ar              3.9621596              6.0196730             -0.7180593
Ar              5.3975494             -4.5592254             -2.1796659
Ar             -1.9207302             -4.6947844             -4.8129643
Ar              4.6884986              6.9273405              3.0161546
Ar              1.0020778             -2.7715359             -6.2826090
Ar              2.2982096              4.7278928              5.1852994
Ar             -2.0757272             -0.9129931             -5.4132043
Ar             -5.6930936              1.2817240              0.2270184
Ar              0.1652866              1.6490383              6.4378947
Ar             -0.7099279             -4.5653632              4.7525150
Ar             -4.9625679              4.3018775              2.5116738
