42
Energy:            -183.4415
Ar             -0.3459175              0.0908895              0.0992666
Ar              1.7330325              2.4212097             -1.6202056
Ar             -3.2061998              1.3222556              1.7451126
Ar             -2.4680294             -2.3118562              1.8596911
Ar             -3.7016276             -0.5751693             -1.4293655
Ar              2.6691247              0.7600071              1.8060030
Ar              2.5054070             -1.6121375             -1.5004709
Ar              1.2177531             -2.7587047              1.7555829
Ar             -0.9386761             -2.9832804             -1.5011981
Ar             -0.0579994              3.5414213              1.5188929
Ar             -2.1380460              2.8173848             -1.3988145
Ar              3.7307178              4.1796977              0.9951314
Ar              5.0466320             -1.9242155              1.3178146
Ar             -6.0785985             -0.9665055              1.3981735
Ar              6.1670638              1.6047280              2.5527762
Ar              0.9234335             -2.9797928             -4.7026216
Ar              5.1191344              1.0236813             -1.0670769
Ar             -4.4424637              5.3340152             -2.6583624
Ar             -3.0186910             -2.5782541             -4.5110962
Ar              1.5685936             -5.5506140             -1.9931800
Ar             -5.3156733             -4.2263820              3.1393917
Ar             -1.0574793             -5.7396730              0.8809373
Ar              3.7329741             -3.6363267              4.3609274
Ar             -4.0381395              1.7693484             -4.3415725
Ar              2.9837641              0.3982816             -4.5485230
Ar             -2.2508155              3.3291390              4.6297624
Ar             -3.7631457              4.9133735              1.3297840
Ar              5.0479687             -4.4444232             -1.3644617
Ar              1.9360950              3.1079776              4.5896975
Ar             -0.3737268              0.1157642              3.8543364
Ar             -0.2566129              4.1266678             -4.2428726
Ar             -1.1470848              6.3076534             -0.9672682
Ar              2.3626174              6.0779065             -1.9977132
Ar             -4.4091082             -4.1742272             -0.6861523
Ar              4.6248019              3.6704305             -3.6859023
Ar             -0.6280894              0.2288534             -3.5852540
Ar              2.8787719             -6.0052178              1.4487395
Ar             -6.2232268              2.5364306              3.2933426
Ar             -2.0548315             -6.0808429             -3.0552838
Ar              6.4882011             -5.2652525              2.1463751
Ar             -4.1625578             -0.5499905              4.7331431
Ar             -5.8391604              2.3836899             -0.6629659
