42
Energy:            -182.4399
Ar             -0.2371206              0.2596204              0.6541646
Ar             -1.2380121             -1.9489026             -2.0180566
Ar             -1.2557016              2.1779775             -2.1286098
Ar              0.7696779             -3.4245575              0.7890395
Ar              0.8923208              2.0344217              3.5773942
Ar             -2.7619593             -2.4049918              1.3103849
Ar              0.5646417              0.2549353             -4.5638266
Ar             -4.7602765              3.3159709             -2.7858365
Ar             -4.9723216             -2.6963924             -1.8544597
Ar              0.6939266              4.2386573              0.2713543
Ar              0.8627461             -4.9106335             -2.9712402
Ar              3.9295752              3.3105264              1.7418290
Ar             -2.9917879              3.8628725              0.7112433
Ar              2.5236519              1.6592707             -1.4639831
Ar              4.3806944             -4.0573653              0.5177829
Ar             -1.3756495             -5.1466741              3.3665876
Ar              3.1900884             -0.5024371              1.5917512
Ar             -2.8409284              0.9618216              3.1812417
Ar             -4.2399823             -5.6692428              0.5795422
Ar              1.5829387              5.6287557              3.9054026
Ar              2.5581170             -1.8528483             -1.9851208
Ar              1.2672558              4.1311797             -3.9011763
Ar             -4.0114410              0.5217099             -0.4224969
Ar              2.0367447             -6.5451035              2.5281269
Ar              3.1072645             -3.3383707              4.0131852
Ar             -0.9717589              7.2472320              1.3215249
Ar             -0.5433051              6.9817371             -5.4967398
Ar              2.4598601             -2.7931166             -5.6467680
Ar              1.2649989              7.4100224             -2.0518244
Ar             -2.7680210             -5.4049515             -2.9466351
Ar              4.1615916              4.9627130             -1.6886222
Ar              4.6642515             -4.7029777             -3.2170368
Ar             -3.4253389              0.0118437             -4.2405054
Ar              2.9592496             -7.2363528             -0.9961409
Ar             -3.6386385             -2.4100900              4.9124947
Ar             -2.0453541              3.3917949             -5.4985010
Ar             -1.9766233              5.7738411             -2.2669415
Ar             -1.9230852              4.5388430              4.1407649
Ar             -0.1134791             -1.5563222              3.8992427
Ar             -1.3308916             -2.9604007             -5.5362354
Ar              3.1789939              7.2072240              1.0780531
Ar             -0.7081373             -6.7039469             -0.0640532
