42
Energy:            -188.2791
Ar              0.5499690             -1.4412717              1.0600837
Ar              2.6267309             -4.5765673              0.3092922
Ar              1.1799724              4.2715946             -1.4890940
Ar             -2.8319576             -0.1824222             -0.0123329
Ar             -0.7912039             -4.8435519              1.6185456
Ar             -1.6734322             -0.1964556              3.5885208
Ar             -0.5696077              2.4908049              1.3687783
Ar              0.1780362              0.6938688             -1.8427888
Ar              3.4437300              1.7900494             -3.3650663
Ar              2.8642140              1.5122231              0.3336003
Ar              2.9968136             -1.5037448             -1.6472406
Ar             -5.3016925              2.4577510              0.6677990
Ar             -0.3759200             -3.1010107             -1.9734357
Ar             -2.5782755              3.0635941             -1.9542153
Ar             -6.5800896             -1.1572751              0.3398358
Ar              1.9723331              0.5656511              3.6445984
Ar             -4.0881315             -3.0623929             -1.8826315
Ar             -3.3766662              3.2213446              3.7547420
Ar             -3.8820064             -2.9919511              2.1018465
Ar              3.6349778              2.5239897              6.2134853
Ar              5.5009599              1.8288830              2.8855866
Ar              2.7822754             -4.5320923             -3.6254978
Ar              5.2513618             -1.4767228             -4.4589985
Ar              0.5004735             -0.7411221              6.6987631
Ar             -5.5214986              0.6803675             -2.6685100
Ar              4.3718382             -1.5511052              1.7437856
Ar              5.9919055             -3.5177785             -1.1108597
Ar              1.7682601             -3.2111519              4.0020250
Ar             -0.0013889              2.6144537             -4.9099739
Ar              5.0689782              4.2129317             -0.4911986
Ar              4.6250573             -1.1899370              5.4745833
Ar             -0.1204060              2.8994930              5.4420538
Ar             -1.7741241             -3.4880403              5.1985012
Ar              6.1430702              0.4119337             -0.9888826
Ar              1.2689740             -1.1741285             -4.9013206
Ar             -2.3487676             -0.3648878             -4.0983342
Ar             -5.3582940              0.0656671              3.6838970
Ar              5.1063281             -4.8181179              3.2280700
Ar              2.4848122              4.2113138              2.8141685
Ar             -1.8059952             -3.8226408             -5.2910609
Ar             -5.3774561             -2.1849180             -5.2883425
Ar             -3.0738229              0.7970715              6.7986213
