42
Energy:            -189.3339
Ar              1.6119531              0.8642953              1.2121111
Ar              4.8889680             -1.3740711              0.5322095
Ar             -1.4258009             -0.1887334             -0.7983300
Ar             -4.1891259              2.5962427              0.1675730
Ar              1.2707617              3.3961576              3.9974071
Ar              2.7638336              0.1480703             -2.1636893
Ar             -0.1531476              1.2048957             -3.9876442
Ar             -4.2986541             -1.0151489              1.4191967
Ar             -0.8343918             -1.9212050              2.3569141
Ar              1.5128329             -2.5908934             -0.1454186
Ar              2.6929146             -2.7712576              3.3212200
Ar             -3.5026405              2.5132288             -3.4365820
Ar             -3.3823721             -1.2659399             -3.7116866
Ar             -1.6503269              1.5588797              2.5271556
Ar             -0.5782918              3.2405544             -0.8931728
Ar              3.7917759             -3.3419296             -2.9789626
Ar              4.7971389              2.3837440              0.0123817
Ar             -3.0481672             -0.9802593              5.0936918
Ar             -3.3778185             -4.4272407              2.9866980
Ar             -2.1411895             -3.7852192             -0.6862896
Ar              4.2279257              0.6892664              3.7251798
Ar             -5.0655884              1.9818478              3.8179896
Ar              0.1565205             -2.3084919             -3.3664008
Ar              2.5521771              3.7843575             -2.7846758
Ar              2.5910710             -0.8485519             -5.7616081
Ar             -1.9060405              2.6081792              6.0158275
Ar             -1.9163771              2.3274695             -6.9763148
Ar             -1.0379229             -1.4252770             -6.7047369
Ar              4.8725559              4.3507308              3.2587837
Ar              0.7107555             -0.0846349              5.1004294
Ar              3.9193612             -5.2153515              0.4764656
Ar             -1.6302733              5.1863476              2.0916812
Ar              0.2503064             -5.4437930              1.8535319
Ar             -0.3694981             -3.8342462              5.4144914
Ar             -2.1621491             -4.8731171             -4.4435625
Ar              0.8888076             -5.7146740             -2.0531755
Ar              2.1312677              4.9745729              0.7748989
Ar              5.1438742              1.6945438             -4.5113499
Ar             -0.6906624              4.8809817             -4.3447121
Ar              1.9696452              2.8778520             -6.4405127
Ar             -3.1120817              5.8401791             -1.4901297
Ar              1.4699754             -4.5790390             -5.8602141
