42
Energy:            -185.9527
Ar             -1.1023903              0.4403768             -0.6406570
Ar              0.7961654              3.0573797             -2.4891368
Ar              0.9790217              2.7179786              1.3166429
Ar             -0.6094138             -2.0437342             -3.2354457
Ar              0.5571499             -2.6807986              0.1381469
Ar             -4.1056939             -1.8203418             -2.3379661
Ar             -3.2671733             -1.6968954              1.3229882
Ar              0.0540037             -0.5374564              2.9291796
Ar             -2.6461648              1.8056333              2.4082538
Ar             -2.1632568              3.9593205             -0.5066878
Ar              2.9915947             -2.6532249             -4.5899818
Ar              3.8903995              2.1548834             -4.4504028
Ar             -2.6141779              1.8050669             -3.6533289
Ar             -2.9795402             -0.7881903              5.0367065
Ar              4.2838540              2.8942817              3.0748069
Ar              0.2746675             -2.3717844              6.1687057
Ar              2.3019581             -0.2126288             -2.0171678
Ar             -0.0057330             -3.2880551             -6.6788205
Ar              0.5835008              0.5769300             -5.4162523
Ar              4.1341585              2.6967877             -0.7057007
Ar              0.1097092              2.5609465              4.9438506
Ar             -2.2671161             -4.7700469             -0.6979395
Ar              2.9889663              0.0171934              5.1204017
Ar              3.9092419             -3.5335573             -0.8723361
Ar             -2.7173369             -4.7855970             -4.4483708
Ar             -1.1815401             -4.1256871              3.1450402
Ar              3.3720713              5.6894883             -2.8867645
Ar             -5.1914550              4.4289742              1.6248476
Ar              2.5321816             -3.4419740              3.2328544
Ar             -4.8274727              1.3108251             -0.5409927
Ar              1.1371800             -6.1975869              0.9184176
Ar             -3.5949346              3.3024217              5.5864726
Ar             -1.5672441              5.6011158             -3.7574987
Ar              4.4054945              6.0451184              0.8200128
Ar              0.7754301              6.1248312             -0.1549650
Ar              3.4224472             -0.3483331              1.4069610
Ar              1.8928451              5.6779882              3.5670105
Ar             -1.6845829              5.3315187              2.8857926
Ar             -3.0006280             -1.1456959             -5.9234680
Ar             -5.1557132              4.4949001             -2.5602357
Ar              0.9420069             -5.2868074             -2.7486966
Ar             -4.7268104             -5.0230028              2.1782977
