42
Energy:            -185.7015
Ar              1.1939161              1.2134027             -0.4438430
Ar              2.2361685              0.9102305             -3.9526018
Ar             -3.8238940              1.1678849              1.9714273
Ar              3.9473950              0.6723011              1.9102024
Ar              0.2238576             -1.8104667             -2.3277365
Ar             -2.3737427              0.7629680             -1.5257859
Ar             -0.3064323              0.5946571              2.8402663
Ar              3.9260281             -1.3074838             -1.3906634
Ar              1.6297790              3.6013140              2.7589463
Ar              2.0784199              4.9059866             -0.6527523
Ar              1.4375973              0.9642027             -7.5896443
Ar              1.0980167             -2.3753227             -5.8845173
Ar              1.5878279             -2.1229878              1.2880908
Ar             -2.7088652             -2.8804720             -6.0067939
Ar             -1.8785662              3.6979013              4.2787867
Ar             -1.9555780             -1.9564538              0.8080126
Ar             -4.6513780             -2.3122421              3.3022718
Ar              0.4667322              1.4955752              6.3268653
Ar             -0.3701385              3.4864584             -3.0815487
Ar              2.4749907             -1.2454688              4.7733058
Ar             -1.3443693              3.6124685              0.5954442
Ar             -1.2938719              0.3755735             -5.0214814
Ar             -5.5911603              2.4727272             -1.1061758
Ar              4.6729058              2.3385096             -1.4464137
Ar              0.0836205             -5.0081291             -0.5270370
Ar             -4.8862598             -0.5387963             -3.9330864
Ar              2.8569349             -4.3697239             -3.1891835
Ar             -5.4657439             -1.2698528             -0.2993437
Ar              4.0017596              2.3337438              5.2769787
Ar             -0.5586700             -5.3426446             -4.2086051
Ar             -2.9975703              0.2866704              5.5071663
Ar              3.9005063             -4.8085973              0.3600175
Ar             -3.8573621              3.0022845             -4.4248274
Ar              4.6987562             -1.6241959             -5.0841309
Ar             -2.5537415             -5.3388654              2.1317335
Ar              1.2329408             -5.3657054              3.0598483
Ar             -0.9899064             -2.6808972              4.3614567
Ar              5.1262600              4.2399774              1.8181586
Ar             -3.3894069              5.5418701             -1.7532844
Ar             -4.6602236              4.8122186              1.8023880
Ar              1.3021048              5.1305630              6.1049949
Ar             -3.1258697             -3.4476102             -2.2927796
