42
Energy:            -192.7216
Ar              0.7852849              0.3196306              1.8802083
Ar              0.6462737              3.7308047              3.5140176
Ar              0.4316084              3.2583453             -0.1813587
Ar             -2.5415069              1.3995700              1.0606905
Ar             -0.5408948             -0.0250958             -1.6286569
Ar             -1.7839497             -5.5294223              2.7369158
Ar              1.5896262             -2.6323726             -0.1417110
Ar              3.0304284              0.7003775             -0.9826482
Ar              2.3650926              0.6236377              5.1581825
Ar              4.0869454             -1.2558587              2.3120219
Ar              6.4369859             -0.5938012             -0.5650534
Ar              1.8408595             -5.8556056              1.6260869
Ar              2.8064869              3.7969124             -3.0343097
Ar             -1.4466301              0.9547332              4.7122553
Ar             -0.5954637              6.5318381              1.4469135
Ar             -4.5328840             -4.7534509              0.2267490
Ar             -3.9800595              1.3158923             -2.3663252
Ar              0.3466512             -2.9805170             -3.6999240
Ar              2.5145715             -5.6970903             -2.1677867
Ar              3.8376018              2.4786194              2.1668790
Ar              0.0583159             -1.5660456              7.1331744
Ar              5.4242579              1.0936895             -3.8817805
Ar             -5.3528101             -0.9876070              0.2543288
Ar             -0.9880717             -5.1851630             -0.9254154
Ar             -2.9631105              4.6225392             -0.7870880
Ar              3.0702972              5.7051799              0.3454328
Ar              5.8345210              3.2509651             -0.8451799
Ar             -5.9884688             -3.1653677              3.2504644
Ar              0.8894365             -2.8332696              3.6471986
Ar             -1.8889214             -0.2413894             -5.1527382
Ar             -4.9713448              0.4772775              3.6952444
Ar              3.9894950             -2.2856111             -2.9980203
Ar             -2.7061700             -2.5097712              4.7830921
Ar             -0.8877712              3.0876904             -3.6584279
Ar              0.1982121              6.4021763             -2.2093525
Ar             -0.3989802             -5.2306986              6.2139060
Ar              1.7670137              0.4527445             -4.5026917
Ar             -3.1455569              4.2283395              3.2036345
Ar              5.0183194             -4.1309811              0.1594231
Ar             -1.9128238             -2.1820820              1.1645920
Ar             -5.9213506              2.7784332              0.7485638
Ar             -3.1853251             -2.4687180             -2.4144040
