42
Energy:            -186.0254
Ar             -0.1467427              0.7135876             -0.3301867
Ar             -2.7213417             -0.1392448              2.0038765
Ar             -1.2473661             -3.1652803              3.5955148
Ar              2.1236912             -0.7521361             -3.0873856
Ar              3.4963001             -0.3393150              0.2087980
Ar             -0.1351355              4.6281185             -0.3086338
Ar              0.9086843             -2.9236688              0.0115509
Ar              2.5518758              2.6918214             -1.9972089
Ar             -3.9876612             -0.0570995             -1.5120586
Ar              1.1046756             -0.4019306              3.0383230
Ar             -1.2151057             -1.9587915             -2.9269885
Ar             -5.1643108             -1.5328661              4.2373914
Ar             -1.7040897              0.1331102              5.5482131
Ar              1.2853403              5.9175312              3.0708904
Ar              2.3893787              2.7479779              1.6072937
Ar              4.4506885             -3.3247673             -1.7111809
Ar             -0.8841467              2.8208326              3.0314042
Ar             -3.5393945             -0.3568034             -5.2804771
Ar              5.7973174              2.6709106              0.1880199
Ar              1.5599837             -4.2001166             -4.1398179
Ar             -0.7148434              1.7744161             -3.7656801
Ar              4.9387593              0.7487283              3.4341540
Ar              0.2065080             -0.9830043             -6.2453496
Ar             -4.6410973             -3.4371640             -3.0522383
Ar              5.5919595              4.2614708             -3.2820879
Ar             -1.4255856             -5.6113280             -2.3759121
Ar             -3.4307101              3.0845500              0.2967313
Ar              3.6001188              5.7808991             -0.1071945
Ar              5.5753463              0.4535775             -2.8627742
Ar              2.9339435              1.8579045             -5.5706489
Ar             -6.3027735              0.8336108              1.3551644
Ar              7.0856246             -0.9397535              0.3945007
Ar             -2.5301376              6.0526105              2.4265042
Ar             -4.4054234             -5.0142272              2.9689244
Ar              4.9282783              4.6307403              3.4185271
Ar             -2.7034289             -3.1865929              0.1503032
Ar              2.0825295              2.5922030              5.2761579
Ar              2.0615612             -6.2906005             -1.0109404
Ar             -4.3948821              2.5106544              4.0860524
Ar             -6.2710818             -2.7756008              0.4708492
Ar             -4.6387578             -6.2825250             -0.5291081
Ar             -1.0053244             -6.2058963              1.3263226
