42
Energy:            -188.9267
Ar              0.6481429             -0.6997880              0.4200337
Ar             -0.1600360             -1.4468064             -3.1637556
Ar              1.0381907              1.8269529             -2.1569657
Ar             -0.1097918             -1.4690485              3.9342283
Ar              1.4693684              1.6385498              3.2666551
Ar              0.3999114             -4.2187740              1.5416838
Ar             -0.1399189              3.7070137              0.7009964
Ar             -1.7840674              4.3615886             -2.5206276
Ar             -2.1209143              1.4654286              2.7532812
Ar              3.3731976             -1.2123038             -2.0944259
Ar              3.4234695             -1.4213270              2.6291809
Ar              2.1082490              0.5465972             -5.4546701
Ar             -3.6254453             -1.4918590             -4.3058120
Ar             -2.7098438             -1.9273652              1.5089251
Ar             -0.7361742             -1.4533843             -6.9103975
Ar             -2.2346023             -4.4523323              4.3136931
Ar              2.7101958              5.0278866             -1.2869110
Ar              1.2578506             -4.6327071             -2.0570404
Ar              2.2090179             -4.0616326              5.0300949
Ar             -1.2280202             -4.5857164             -4.9567875
Ar             -2.3194801              0.7248224             -1.0571060
Ar              3.0673631              4.8165435              2.5668402
Ar             -5.5880181              0.5022500              2.0918940
Ar              3.7173077              1.6814354              0.3987547
Ar             -1.5363626              1.5767189             -4.8714839
Ar              4.0478080             -4.1527981              0.3058691
Ar              2.5456861             -0.3844353              6.2633651
Ar             -0.5375001              4.5999075              4.2975461
Ar              5.0657297              1.6195280              4.0738031
Ar             -5.3925058             -1.4678036             -1.0412214
Ar              4.5438349              2.3368969             -3.2462485
Ar             -0.8006593              1.3459206              6.2960283
Ar             -4.9779611              2.0025886             -3.1402882
Ar              2.3527330             -3.1786703             -5.3237063
Ar              2.5108973              3.4538738              6.2772649
Ar             -5.8132771             -3.2582244              2.8652732
Ar             -4.0730944              3.6211980              0.3941455
Ar             -2.3979413             -3.8709234             -1.4907931
Ar             -0.6505592             -2.4296621              7.3684665
Ar              1.3470144              4.2543294             -4.8482398
Ar             -3.6231737             -1.0174362              5.1183361
Ar              5.7181494             -2.1565499              5.4188474
