42
Energy:            -192.1705
Ar              1.4063970              0.4176946              0.6884365
Ar             -1.2288725              1.2524594              3.0422927
Ar              0.0973515             -2.2280513              2.7901857
Ar             -1.9793479             -0.8082918              0.0353559
Ar             -5.4543953             -2.0958428             -0.6776841
Ar              3.9484539             -0.5537121             -1.7366731
Ar             -3.5742543             -4.3811942             -5.0063366
Ar              0.3136993              0.2749497             -2.7615673
Ar             -1.1172957              2.7870989             -0.3576833
Ar              2.5529277              3.0641313             -1.5419760
Ar              2.3166157              0.5112274              4.2006761
Ar             -0.1148411              5.5396335             -2.6033035
Ar             -3.3667814             -3.5292436              2.1662355
Ar             -3.8567390              3.7007384              2.0119998
Ar              2.5017885              6.5298788             -0.0476466
Ar             -3.9579789              2.1233898              5.4734697
Ar             -0.3135947             -5.6487855              1.3454438
Ar              4.5969627             -2.1843230              5.4184093
Ar              0.9314522             -2.2178115              6.3972115
Ar             -0.8717091              0.0024093             -6.2954388
Ar             -2.2970558              2.6783406             -3.9074965
Ar              2.3968706             -4.8834548              3.9262593
Ar             -3.7308704              5.2500556             -1.4644977
Ar             -0.0978293             -3.1265505             -4.2919350
Ar              0.5995424             -6.2746175             -2.3034370
Ar              2.7548967             -0.8623161             -5.3156204
Ar             -3.1500047             -0.9862604             -3.4582565
Ar             -2.6164647             -1.4284794              5.2370573
Ar             -1.2052985              4.6027419              4.6112407
Ar             -1.0972873              6.1811930              1.1262440
Ar              3.7950992             -2.1160415              1.7485615
Ar             -4.6023152              1.5883775             -1.0649604
Ar              1.5428211              3.7119736              2.1912444
Ar             -0.4205955              1.3555183              6.6506563
Ar              3.4997046             -3.9906779             -3.2580226
Ar              4.7321448              1.6805182              1.4282111
Ar             -4.7172307              0.0191103              2.4082680
Ar              3.3391273             -5.5483850              0.2735848
Ar             -2.4101919             -4.1798128             -1.4426187
Ar              1.0146637             -2.8575204             -0.7700162
Ar             -1.2614431             -4.9752095              4.9681111
Ar              2.3065647              3.8696618              5.8500225
