42
Energy:            -191.1935
Ar              1.2521670              0.2070355             -0.7480300
Ar              1.0216438              2.6649280             -3.4294075
Ar             -1.5474891              2.5015586             -0.5399997
Ar              0.2065922              1.3181546              2.5489914
Ar             -1.9418088             -1.0202544              0.5832383
Ar              1.3207813             -2.2010741              1.9332238
Ar              0.2664173             -3.1750356             -1.5077124
Ar             -1.4897471             -0.2591432             -3.0396243
Ar             -1.9002270             -3.5161302              3.3387137
Ar              5.3138943              4.9353533             -0.7694243
Ar              1.9735388              3.6157794              0.1426456
Ar             -0.7193911             -1.5027269             -6.4334257
Ar              0.3454023             -5.7324213              1.2177986
Ar             -4.3882339              2.1010706             -2.9176471
Ar              0.8975696              4.7893529              3.5841665
Ar              3.9818390             -4.7780090              1.9038961
Ar             -2.9789358             -4.5033744             -0.1944385
Ar              1.4384557             -4.6852150              4.7381725
Ar             -0.7334773             -6.6980941             -2.3159329
Ar             -4.4136033              4.9136159             -0.3471948
Ar              4.0010291             -1.8606049              4.4345998
Ar             -4.3217594             -0.7399032             -5.4527196
Ar              3.9095500              0.6613551              1.6857801
Ar              0.2577588             -1.1231075              5.3341674
Ar             -2.6606201              3.7029673              2.8109628
Ar             -1.9028340              5.0217656             -3.2141576
Ar             -1.8683922              2.1692525             -5.7968503
Ar              2.9004315             -5.7623855             -1.6439274
Ar             -4.7793006             -1.5178938             -1.7673451
Ar              2.7613747              7.0995179              1.1771501
Ar             -5.2120620             -2.2888713              1.9318802
Ar              2.1619846             -0.9788857             -4.0621988
Ar             -2.5411515             -3.7375505             -3.9049297
Ar              3.9574488             -2.2257743             -0.8706143
Ar             -0.8447109              6.0411675              0.3843290
Ar              4.4210695              1.4711947             -2.0279469
Ar             -4.8363539              1.3136098              0.7876979
Ar              1.0882303             -4.5057114             -4.8554729
Ar              2.7882975              1.6929625              5.1644214
Ar             -3.0476969              0.0998051              3.9504027
Ar              2.5881387             -2.6861946              7.8140318
Ar              4.5385480              4.1547205              2.8609426
