42
Energy:            -187.1955
Ar              0.1262013              0.7319685             -0.7378719
Ar              3.4862826              2.4915693             -1.3943440
Ar             -2.9060018              2.7602595             -0.7066886
Ar             -3.0453496             -0.7446275             -1.9977701
Ar              2.4604119             -1.9853347             -0.1268564
Ar              0.2239613             -1.0434460              2.6864507
Ar             -5.4416867              1.6144896             -3.5831811
Ar              4.7361566             -0.6785693             -2.7893095
Ar             -1.1814497             -3.0967555              0.1026306
Ar              5.5255566             -0.1768809              0.9059511
Ar             -2.9480341             -0.1492829              1.4959438
Ar              2.5714975              1.4818965              1.9740830
Ar             -1.8236495              1.6845375             -4.3958039
Ar              0.1998939             -2.1801459             -3.2279805
Ar              7.2425368              1.9167922             -1.5769090
Ar              3.5784085             -1.7969859              3.7842517
Ar             -0.8423015              2.6690499              2.6023279
Ar              0.4088606             -2.7507225              5.8762680
Ar              5.1217622             -4.0965642              1.3163991
Ar             -6.2326427             -2.1383778             -3.0968799
Ar             -3.0051571             -4.3708311             -2.8493078
Ar             -2.3222400              0.1924701              5.1277375
Ar             -6.3087052              4.1416827             -0.8225731
Ar             -6.1766842              0.4208348             -0.1189825
Ar              5.4943347              3.7021066              1.4912028
Ar             -4.9033038             -3.1174925              0.3676344
Ar             -3.1726322             -1.6558851             -5.5253511
Ar              5.3595396              1.3634239              4.4632321
Ar              1.2021263             -5.4265742             -1.3306390
Ar              1.6754410              4.8931816              0.8497434
Ar             -2.6342972             -3.2921338              3.5451583
Ar             -3.5536776              4.9591665             -3.5819210
Ar              0.1738345              4.0893482             -2.4532160
Ar              4.5707421             -4.3246595             -2.3849203
Ar             -5.8025301             -0.9597108              3.5541249
Ar             -4.7799095              2.7856718              2.6168499
Ar              2.8510562              4.2811134              4.3592124
Ar              1.3641824             -4.5604924              2.4561142
Ar              1.4802425              0.9573803              5.5064904
Ar              7.3571211             -1.9371079              3.5639486
Ar              1.7658720              1.0196368             -4.2750581
Ar              7.6363906             -2.4308840             -1.0530932
