42
Energy:            -189.9175
Ar              1.3635157              0.2856837             -0.9001986
Ar              4.7224953             -0.9298125             -0.2339181
Ar             -1.2451170             -2.2137579             -1.2038181
Ar             -2.0386680              1.4438345             -1.4468428
Ar             -1.0551862             -0.0567297              1.8270501
Ar              0.2981818              3.2662565              0.8252437
Ar              2.5267956              0.7534381              2.4872227
Ar              1.5596193             -2.6318228              1.2169411
Ar             -2.1870875              2.9890597              3.5844817
Ar              3.6670067              0.5926240             -3.7083571
Ar             -0.0422943             -0.2368783             -4.1692726
Ar              4.9150571             -3.9536266              2.0087414
Ar              1.4907897              3.8262997              4.3152097
Ar             -1.0710636             -5.2698049              0.9469767
Ar             -3.5861883              0.9358004             -4.7642421
Ar              2.7900400              5.9301224              1.3870463
Ar             -1.0713279              3.5415779              7.0973044
Ar             -0.7921371              6.3625090              2.6518004
Ar              0.1202052              0.4188717              5.3161108
Ar             -3.9724968             -4.7861261             -1.4881940
Ar             -0.1456958              6.3786295             -1.1260476
Ar              1.8074373             -5.6658667              3.4104469
Ar              1.0033381              3.2868570             -2.9337928
Ar             -3.1838667              4.5428834              0.2786062
Ar             -4.7567522             -1.0860439             -1.7668521
Ar             -0.4436404             -5.4256964             -2.8234037
Ar              2.4674728             -5.8711304             -0.3418650
Ar              5.0820153              3.3464444              3.0901016
Ar             -0.8562285             -3.0398197              4.0526698
Ar             -1.5792818             -0.7875433             -7.5147790
Ar             -4.5470534              1.1272594              1.2923769
Ar              2.3004584             -2.8351538             -2.5343389
Ar              2.8059517             -2.2234612              4.7160981
Ar              3.9183186              2.8377343             -0.4659425
Ar             -2.7889428             -2.8091867             -4.5181352
Ar              0.6792872             -3.4594304             -5.8813547
Ar             -3.6904827             -2.6247246              1.5858053
Ar              5.9083296             -0.4675159              3.3175334
Ar             -2.5345141              4.4755221             -3.4890406
Ar             -3.5390888             -0.3790504              4.6338463
Ar             -7.2217336             -1.5455039              1.0750454
Ar             -0.6257334              2.7508112             -6.2975947
