42
Energy:            -187.1174
Ar              0.5074326             -1.0566031              0.2594312
Ar              0.2874590             -4.6741245              0.5198325
Ar             -0.4857588              1.0237917              3.0258263
Ar              0.8839671              2.5533304             -0.1705664
Ar              1.0098752             -3.0064455             -2.8328126
Ar              3.1331577              0.0230202             -1.8474304
Ar             -0.4803609              0.5002630             -2.8587586
Ar              1.5484835             -2.2237250              3.5234729
Ar             -3.9966864              4.2126712             -0.7596399
Ar             -2.3924101             -2.5852389             -1.3340590
Ar              3.7450285             -2.7791795              0.3810059
Ar             -2.6883026              0.8293522              0.1145057
Ar             -5.4054178             -2.1030988              1.1124225
Ar              3.3001594              0.7442687              1.9699182
Ar             -1.1665430             -1.4624035              5.8979028
Ar             -3.4066763             -5.4444665              0.9428391
Ar              2.3162881              5.8281396             -1.4396962
Ar             -4.1563097              0.1751273              3.8947369
Ar             -5.4145253             -0.4751264             -2.1750371
Ar              2.1654997             -0.4996408             -5.4007772
Ar             -0.5549171             -5.2683907              4.1476459
Ar             -2.7986305             -1.4527659             -4.8906991
Ar             -2.0242752             -2.3602307              2.4152356
Ar              2.2543536              2.9426546             -3.8396754
Ar              5.5572311              1.2085031             -4.3203188
Ar             -0.9285170              4.4121717             -2.8263327
Ar             -2.0013697              2.1495178              6.2826718
Ar             -5.6079036             -4.2720995             -2.0286721
Ar             -3.6477376              2.1778236             -3.9205943
Ar              3.1426423             -5.5303136              2.8057675
Ar              4.7227292             -2.8396433             -3.4683341
Ar             -0.7445755              5.6401530              0.8583924
Ar              2.0330866              0.9709333              5.6177157
Ar             -6.1593937              1.6466452              1.0175335
Ar              3.1822028             -5.8767411             -1.5479496
Ar              4.7936876              3.0464381             -0.8223347
Ar             -3.1854219              3.5611821              2.8123878
Ar              0.1990713              4.4073486              4.3618904
Ar              5.2734825              5.1101665             -3.9076164
Ar             -0.6161442              2.0819096             -6.1606911
Ar              3.0384266              4.5649804              2.0740385
Ar              5.2110067             -2.0445499              3.7727830
