42
Energy:            -193.2254
Ar             -0.7343855              0.9874413             -0.6125273
Ar             -5.3654400              2.3968357              3.3551442
Ar             -2.7578332             -1.5398961              0.9674070
Ar             -1.8023673              1.6002995              2.7826263
Ar              0.7767434             -1.0003279              2.0639247
Ar              2.7654268              0.0844671             -0.8944548
Ar              0.0728149             -2.4937879             -1.2689678
Ar              0.5252421              0.1399688             -3.8737754
Ar             -4.2381575              1.8280222             -0.1857526
Ar              1.3558060             -3.4143019             -4.6410492
Ar             -2.5474029              5.0867824              3.7265787
Ar              5.0509312              2.5325102             -2.4352686
Ar             -0.3081289             -0.3752557              5.5696921
Ar             -1.9922132             -5.1474913              0.3193438
Ar             -1.7203017             -1.7518246             -6.1560580
Ar             -4.8657830             -4.1641275              2.6190386
Ar              1.4109331              3.4808624             -2.1565471
Ar              0.9600195              6.1252138              2.5136016
Ar              0.5618393              3.3150247              5.1045002
Ar              6.3865057             -0.8309391             -1.2096640
Ar              0.8982352             -6.0820499             -1.9756819
Ar              4.0331505              4.3220802              3.8742897
Ar              5.2364124              1.7550814              1.3323862
Ar             -3.9172785             -0.9657920              4.4727061
Ar             -5.1074545             -3.4865138             -1.1223680
Ar              2.7937808              2.5665933             -5.5267149
Ar             -2.2045541             -4.4216794             -3.4513657
Ar              1.6176150             -4.5689818              1.4297409
Ar             -3.0156818             -0.8218499             -2.7723911
Ar              3.6578829             -3.4723856             -1.5948709
Ar              4.3691532             -1.9346455              1.8139271
Ar              3.8870741              5.1299521              0.1414728
Ar             -6.3377142             -0.8328930              1.5041147
Ar             -1.2766116             -3.6044687              3.7279563
Ar             -0.8306737              1.9660541             -6.7705720
Ar             -2.2143762              2.8679178             -3.3565690
Ar              4.1201987             -0.7748716             -4.2568741
Ar             -1.4742988              4.4627122              0.1657955
Ar              3.1885275              0.6507134              4.3608597
Ar              1.6046218              2.6066260              1.5907446
Ar              2.3196286             -3.0220532              4.8270058
Ar             -6.6543863             -0.2004920             -2.2220121
