42
Energy:            -193.5624
Ar             -1.3046441             -0.7683424             -1.2991297
Ar             -4.9145454             -0.3584106             -1.1073282
Ar              4.0745019             -0.7359493             -4.5519602
Ar              0.6476549              2.2299113             -1.8213779
Ar              2.2939427             -1.0924504             -1.3376976
Ar              0.6045350              0.6075069              1.5272388
Ar              0.2157349             -3.0554793              1.0594479
Ar             -2.7276559             -0.9744038              2.0153614
Ar             -2.4518024              2.2942241              0.2408244
Ar              2.1699237             -1.7247266              3.9677900
Ar             -3.1377143             -2.1470722             -4.1233697
Ar              0.2981342             -0.4128408             -4.5428445
Ar             -6.0965213              2.8259085              0.5305947
Ar             -1.2385189             -3.3479816              4.4866793
Ar              4.2845925              0.2767084              1.5220636
Ar             -0.5014453              5.4387743             -0.2915802
Ar             -1.6277121             -6.1449194              1.8972808
Ar              4.3540204              1.9685525             -1.8840219
Ar             -4.2376960             -1.1999124              5.4477175
Ar              1.7716220             -5.4603612              3.4900030
Ar             -0.8437073              0.4100566              4.9442668
Ar              1.6301368             -6.2265874             -0.2363859
Ar             -3.6729624              5.4754234              1.8207683
Ar              0.0060961             -3.8712920             -2.6641603
Ar              2.6836154              5.3453147             -2.3827518
Ar             -0.7059552              4.8271335             -4.0675475
Ar             -3.9112505              4.9016132             -1.9398435
Ar             -4.6611318             -4.0009449              2.8989951
Ar             -0.5564505              3.7569702              3.1258109
Ar             -2.7559721              1.7017800             -3.5527469
Ar              5.7615600              3.4342076              3.0009495
Ar             -3.9731614              2.1470608              3.6474722
Ar             -3.2157131             -3.7823648             -0.5714440
Ar              3.9272191             -3.4587744              1.0632240
Ar              2.3756868              2.6671605             -5.0720806
Ar              2.6057662              3.6806485              1.0032725
Ar              3.7795821             -4.1946699             -2.6804098
Ar             -6.3805292             -0.5429802              2.3614509
Ar              6.0302887             -1.4321124             -1.3754689
Ar              7.5027685              1.7140991              0.1304087
Ar              2.5492032              2.0153585              4.4230582
Ar              1.8850728             -3.5259840             -5.8894497
