42
Energy:            -187.5483
Ar             -0.0181639              0.6852651              0.9220812
Ar              0.0462294             -3.0052485              1.7388285
Ar              2.4385080             -0.6187441              3.3707606
Ar             -1.7547930              3.9970472              1.3652663
Ar             -2.3902592              1.8611129             -1.6498135
Ar             -1.2651070             -0.5230777              4.1569365
Ar              3.7027790             -3.1673691              0.9030372
Ar              1.8933407              3.8902435              0.4777102
Ar              1.2236600             -1.7916453             -1.5231298
Ar             -2.3668725             -1.6885810             -0.7590885
Ar             -2.9789507              2.7776651              4.7361382
Ar              3.5868966              0.5251396              0.0573118
Ar             -2.3238588             -5.3524425             -0.0652369
Ar             -3.6580261              0.7576778              1.6618651
Ar              0.5092302             -0.8324383             -5.0718488
Ar             -2.3770441              0.3160742              7.6146230
Ar             -3.6633498             -2.9102425              2.5114103
Ar              4.3773588              2.6102389              3.0352708
Ar              6.4703759             -1.5496133             -1.0952525
Ar              1.1295518              1.7246772             -2.4603669
Ar             -4.9828005             -0.4287083              5.0094077
Ar             -6.5084531              2.5338347              3.2337524
Ar              1.2944891              0.2329729              6.7999399
Ar             -5.6585743              0.1514717             -1.4941859
Ar             -1.2739353              2.7970307             -5.0431031
Ar             -1.1328593             -3.9250397             -3.4606060
Ar              0.9033084             -3.3491837              5.3914057
Ar              2.7230981             -3.8816318             -4.1240130
Ar             -1.4887259             -5.7821666              3.6497003
Ar              6.0980668             -0.7741835              2.6164741
Ar              4.4744213              3.3157344             -2.2969342
Ar              6.9690948              2.0421023              0.2369397
Ar              1.3102361             -5.4553126             -0.9081893
Ar             -6.9143433             -1.0509600              1.8352453
Ar             -3.1230862             -0.6820453             -4.2558764
Ar              4.0110520             -0.3021187             -3.6180706
Ar              0.7092935              2.7018110              3.9512321
Ar             -2.3829205              5.4803389             -2.1109696
Ar             -5.2306056              3.7051625             -0.1209348
Ar             -5.5727761             -3.5378269             -0.7376105
Ar              1.2421533              5.3289095             -3.0388542
Ar             -2.7758903             -3.2498575              6.1976250
