42
Energy:            -194.1703
Ar              0.4123310              1.7796827              1.2497071
Ar              0.9746759              5.3578312              0.9172915
Ar             -0.4651570             -0.0350847             -1.7524597
Ar             -2.9956137              0.6115929              0.9327961
Ar             -0.2293531             -1.8258222              1.5144985
Ar             -0.9105844             -5.5252575              1.7639458
Ar              1.2860240              3.4594787              4.3564761
Ar              2.3811739             -0.1598570              3.5715589
Ar              2.8473939             -0.5228274             -0.1119571
Ar              3.8898698              2.7923242              1.5954732
Ar             -1.6888557              3.5064192             -1.1453511
Ar              6.4167955              0.3703236              0.1931281
Ar              3.3092335              1.4078826              6.7863292
Ar             -3.7050010             -3.0483126              1.2155727
Ar             -2.6340739              1.6113186             -4.2619185
Ar              4.5854739              0.4162728             -3.2485372
Ar             -2.9276641             -0.7514169              7.3144409
Ar             -5.7166668              2.6425665              2.3681774
Ar              4.4441107             -2.1490582              5.9948142
Ar              2.0206269             -2.4162605             -3.2240526
Ar             -5.2309587              2.2743318             -1.5072597
Ar             -4.7587319             -0.6820826              3.9707419
Ar              5.4026507             -2.8822701             -1.5268795
Ar             -3.9613757             -1.2480626             -2.1425943
Ar              0.7633946             -1.4515460              6.6805222
Ar             -6.5262975             -0.6366143              0.5814061
Ar             -2.1536516              3.9074674              2.7075745
Ar              2.2671562             -4.2169238              0.1323942
Ar              2.0976439              2.8204380             -1.8016332
Ar             -0.0919879              4.4226407             -4.3947945
Ar              4.9490210             -2.5231107              2.2385339
Ar              1.7786723             -3.8492437              3.8944118
Ar             -0.4139171              2.1169466              7.4429539
Ar             -1.1062549             -3.7115892             -1.5403237
Ar              1.1610139              0.8842531             -4.9296282
Ar             -3.8971630              2.5860075              5.7533825
Ar              5.9430890              0.7318649              3.9927364
Ar             -1.9080901             -3.1484429              4.5619431
Ar             -1.2306452              0.5209539              4.2157729
Ar             -4.6362935             -4.9402645             -1.8921411
Ar             -1.4056350             -1.9465314             -4.8532415
Ar             -4.4845836              5.5442611              0.2631472
