42
Energy:            -194.5715
Ar             -0.6553239              0.7742020              0.9983229
Ar              1.0632341              2.5731709             -1.6091885
Ar             -1.5249535              0.0287671             -2.4439150
Ar              1.7604708             -1.0495521             -1.0657521
Ar              4.2529333             -2.9104592             -3.1696164
Ar              1.3344243             -1.7838727              2.5654045
Ar             -2.3311006             -1.1705399              3.5730980
Ar              2.8437209              1.4549437              1.4765594
Ar              4.0227101              2.1229937              4.9132730
Ar             -4.0481895             -0.1139204              0.2874485
Ar              0.9066423             -1.8232313             -4.6013086
Ar             -5.0447015             -0.8800024             -3.2357598
Ar              4.6890080              3.3437917             -1.1640740
Ar              0.3426466              1.4572198              4.4282515
Ar              2.8440263              4.4717284             -4.3080526
Ar             -2.2848529             -3.5035132             -3.3799187
Ar             -3.1491455              2.5319555              2.9893149
Ar             -5.8738729             -2.1620023              2.7820427
Ar              3.3999813             -4.4334038              4.2276764
Ar             -3.5091820              2.5232880             -4.2992225
Ar             -0.2580583             -3.8618076              5.1776890
Ar             -4.8652296             -3.6663662             -0.5793097
Ar             -6.1506443              2.3403844             -1.5365864
Ar             -1.3601399             -2.6939807              0.1433045
Ar              6.4835504              2.1830097              1.9971428
Ar              0.6359917             -5.3720046              1.7713711
Ar              0.1891809              1.8836827             -5.1783178
Ar              2.0080928              6.0833370             -0.9567355
Ar              3.8452582              4.9327695              2.2176927
Ar              5.3808821             -0.3645570             -0.5875308
Ar              0.1678915              4.2342598              1.7638756
Ar             -3.0576253             -4.7555162              2.6846628
Ar              4.9690124             -1.1329449              3.1271023
Ar              3.8376657             -3.6845132              0.5315982
Ar             -0.8238107              5.1505384             -3.4741701
Ar              3.5587249              0.7856063             -3.7514173
Ar              2.4677880             -1.2080837              6.0344027
Ar              1.0689571             -4.6000964             -1.9485268
Ar             -2.4503765             -0.7280428             -5.9992119
Ar             -6.7214625              1.5648888              2.2059072
Ar             -2.6092468              3.3123812             -0.7287622
Ar             -7.6103683             -1.0311725             -0.4400157
