42
Energy:            -186.4954
Ar              0.4267853             -0.5384122              1.4399145
Ar             -2.4812263              2.7057632              0.9463828
Ar             -0.5265693             -3.4064238             -0.7765608
Ar             -3.0024613              0.0488721              3.3993707
Ar              3.7578035              0.5156668              0.0527112
Ar              1.0130548              2.8603466              0.1100831
Ar             -2.4196201             -3.3478813              2.3206229
Ar              5.1325918             -4.8535221             -2.4834439
Ar              1.9701300              5.3766222              2.5940737
Ar             -5.9612094              2.0161137              1.9958499
Ar              1.1468533             -4.4013503              2.4246133
Ar             -5.6405791             -1.6676659              1.2736692
Ar             -2.6891875             -0.5322792             -0.5683221
Ar              1.8423785             -6.3218526             -0.9736205
Ar              3.2702425              2.6684261             -2.8835993
Ar              3.2780006              1.8879740              3.3838872
Ar              2.9139147             -2.8557564             -0.4154341
Ar             -4.9034474              5.4601793              0.5450803
Ar             -5.0785598              2.3283456             -1.6584733
Ar              6.4778759             -2.0908797             -0.0780086
Ar             -1.6060189             -6.6293010              0.6138133
Ar             -1.3746201             -5.9698454             -3.2246653
Ar             -8.1311951              0.3330946             -0.6736322
Ar             -5.4775604             -1.1661281             -2.9207706
Ar             -1.3873144              5.6618794             -0.9734781
Ar              4.4876821             -1.0718906             -3.2708028
Ar             -4.0689783             -4.1426644             -1.1205191
Ar              0.9247175             -0.2878698             -2.2372900
Ar              4.8106084             -5.3056689              1.4548250
Ar              4.8362941              3.9490755              0.5499121
Ar             -1.5054480              2.3618941             -2.7321620
Ar             -1.7774117              5.8009912              2.8105271
Ar              1.6529091             -3.6706239             -3.8160104
Ar             -0.2512603              2.4557256              3.8422116
Ar              2.3378895              6.0465427             -1.2706713
Ar              6.8356004              1.4875571             -1.6569664
Ar             -1.9501903             -2.1311259             -3.9067024
Ar              3.8410249             -1.7940195              2.9924347
Ar              6.7192365              0.9233470              2.1974950
Ar              0.3390508              8.3739865              0.9843049
Ar              0.2880226             -1.4768590              4.9005242
Ar             -7.8417790             -3.4976411             -1.1522124
