42
Energy:            -186.4347
Ar              0.1677345              0.1435260             -0.2776858
Ar             -2.8743733              1.8887368             -0.9055172
Ar             -2.9633269             -1.3499018              0.6442109
Ar             -1.6028432              1.5159807              2.5962469
Ar              2.9918116             -1.7954220              0.6440615
Ar              3.2906620              1.6727379             -1.0383444
Ar              2.1384527              1.5231650              2.5081749
Ar             -0.0289539             -1.8732537              2.8099004
Ar             -1.9331093             -1.0619995             -2.9763204
Ar              2.0710795             -4.8789999             -3.4038572
Ar             -4.1902013             -3.9517212             -1.5288126
Ar              0.1021736              3.7942997             -0.0059814
Ar             -0.2084804             -3.5110332             -0.7106320
Ar              2.8652873             -4.0301916              3.7424278
Ar             -0.0702885             -5.7422287              2.2693011
Ar             -2.4641287              5.1204028             -2.5044491
Ar              2.5084414              4.9393922             -2.6314479
Ar             -3.3146081              4.6739042              1.4419248
Ar             -4.7950116             -2.2413323             -4.9360118
Ar              4.7830800             -0.8221290              3.7707617
Ar             -1.5949647             -4.5208074             -4.1857350
Ar              3.3967359              4.9100815              1.0691282
Ar             -0.1174047              2.1873659             -3.3734982
Ar              2.0277759             -1.1614245             -3.1248587
Ar             -4.0531389              2.9815269              4.8775826
Ar             -3.7065500             -1.1410664              4.2223088
Ar              5.7913482              2.6027003              2.6139325
Ar             -3.9127918              1.8277145             -4.4052461
Ar             -5.6482768             -0.3589943             -1.7685950
Ar              6.3164793             -0.2201623              0.3038709
Ar              5.9465343              0.2727754             -3.3204473
Ar              5.1389025             -3.1362883             -2.0136066
Ar             -1.4161829             -4.0671720              5.4180868
Ar              3.1901394              2.0442943             -4.9444488
Ar              0.1354718              4.6519443              3.5774864
Ar              3.0059084             -5.4610739              0.1741659
Ar             -6.0031628              3.5887946             -1.4291466
Ar             -6.4314549             -2.2833814              1.4247414
Ar             -3.5380428             -4.5296542              2.2904427
Ar              6.3926758              3.5233935             -1.0905148
Ar             -5.3659074              1.3520345              1.7313581
Ar              6.0454752             -3.7430848              1.6549100
