42
Energy:            -187.0186
Ar              0.3227343             -0.9216702              0.2260728
Ar              3.4675541             -2.9391623             -0.4366112
Ar             -2.8831624             -0.2566940              2.7640537
Ar              4.0628722              0.8676034             -1.0814516
Ar             -1.5944833             -0.7025367             -2.9676934
Ar              0.6353232              1.9920469             -2.2102566
Ar             -1.2248298              3.0889993              3.2078812
Ar             -2.5773032              1.6195810             -0.2531778
Ar              1.6370985              2.3701537              1.2310760
Ar              0.5324173             -0.3837336              3.8003059
Ar              1.9277794             -1.1933348             -3.1924192
Ar             -2.6192826              2.7803584             -3.8000212
Ar              3.6074558              1.8928194             -4.5944799
Ar              3.4661782             -1.0290125              6.0199747
Ar             -0.1580626             -3.9961682             -1.8231643
Ar             -3.6849604             -3.5272121             -3.8725670
Ar             -3.1842331              1.7181376              5.9961710
Ar              3.1991385             -1.4974927             -6.5894498
Ar             -3.3246770             -0.2820834             -6.1615294
Ar             -4.9001099              2.8671073              2.6299571
Ar              2.5575109              2.5059354              4.8223208
Ar             -0.2834250             -2.9598338             -5.6048780
Ar             -0.6960990              4.8717040             -0.3852779
Ar              3.1702677              4.5241458             -1.5474048
Ar             -2.8866794             -2.0263008              5.9340717
Ar              0.2454267              0.8355959             -5.8096828
Ar             -3.2407012             -2.3941651             -0.2500761
Ar              3.9681076             -0.2654641              2.3936821
Ar              0.6820875              4.5087273             -4.8351049
Ar              2.5409304             -3.5657773              3.0936690
Ar             -1.1445173             -3.5439009              2.6424693
Ar              0.5223450             -3.3568761              6.1961340
Ar              6.8258897             -1.3010010              0.1431951
Ar              0.0691215              0.3212457              7.3300010
Ar             -5.1380400              0.0116992             -2.7461942
Ar              5.5470598             -1.6104476             -3.4991891
Ar              5.1947092              3.2251697              1.6623232
Ar             -6.0706286             -0.2411597              0.8658546
Ar             -6.1104598             -0.2042851              4.6670496
Ar             -2.0428699              3.2506859             -7.4494847
Ar             -4.9440362             -3.3629460              2.9574155
Ar              2.9922969             -4.5476976             -4.0388676
