42
Energy:            -190.0774
Ar              0.1623441             -0.4502932              2.3616882
Ar             -2.7509832              1.3187177              0.9667476
Ar             -0.7461706             -0.9600081             -1.1827705
Ar              0.6478446             -3.6784139              4.1376048
Ar              2.9046159             -0.2084562             -0.4289052
Ar             -2.7645069             -1.5346821              4.3425246
Ar              1.9261398             -2.8634596             -3.0318343
Ar              0.7654113              2.5436015              0.3409155
Ar             -5.1867658             -1.4211633              1.2623235
Ar              0.4141231             -0.5964518              6.1699735
Ar              1.2576734              4.5526158             -3.1468638
Ar              5.1374237             -4.6272779             -3.7918038
Ar              1.4897583             -3.3341334              0.5831047
Ar             -2.0647088             -3.4039912              1.2676416
Ar              0.1648043              5.0878385              2.9830205
Ar              0.1015991             -6.5462452              1.7162699
Ar              4.4237613              2.6068334              1.5492672
Ar              1.4934396              0.7993971             -3.6686584
Ar             -1.6127474              2.3940875             -2.4129498
Ar             -3.6854376              4.5686929              2.2883247
Ar              3.7063800             -1.3692503              2.9844964
Ar             -1.5917286              2.1322463              4.4202071
Ar             -5.1550096              1.3094223              4.0327922
Ar             -2.6603239             -5.4171868              4.3150366
Ar              2.6967232              5.6683753              0.1310814
Ar              6.6219602              0.1699502             -0.1604248
Ar             -6.5541324              2.1372917              0.7626748
Ar             -4.7379675              0.4705759             -2.0412441
Ar             -0.6359121              2.7902663             -6.0052102
Ar              5.0124665             -0.7997211             -3.4363545
Ar             -2.0366982             -0.5733616             -4.6203682
Ar             -4.2830813              2.6483402             -5.0174762
Ar             -2.2219997              5.7039258             -4.1018390
Ar             -4.5835199              4.2894203             -1.4683931
Ar             -0.7177633             -5.1604010             -1.7769356
Ar              2.8799188             -6.2467250             -1.1290441
Ar             -1.2059438              5.5846033             -0.4487579
Ar              3.7542369             -5.3350551              2.6141452
Ar              4.3394930              2.7593782             -2.1268035
Ar             -3.7582321             -3.0441540             -2.0571506
Ar              2.1033715              2.0752681              4.2369735
Ar              5.0531114             -3.2226707             -0.3181154
