42
Energy:            -186.8990
Ar              0.4222791             -0.2325202              0.7715208
Ar             -0.2198405             -2.0834055              3.8492452
Ar              1.5171242             -2.1687713             -2.0318866
Ar             -1.9868617              2.4203779             -0.2260123
Ar              1.6438503              3.0740142              0.8968605
Ar              0.7904510              1.4811562             -2.4492099
Ar             -3.1474030             -0.7769143              1.6768640
Ar              1.7305539             -5.7494573             -1.2782116
Ar             -0.7983352             -3.5607926              0.4325252
Ar             -0.8771826              1.7712937              3.3932883
Ar              3.8226926              0.2678755             -0.5725089
Ar              0.7355297              2.3564179             -5.9792343
Ar             -2.6159339              6.1447100             -0.1727558
Ar             -0.3751358              5.5150065              2.7231607
Ar              3.7360689              3.7448925             -2.0622455
Ar              3.4910362              6.1008752              2.0499643
Ar             -1.2709328             -4.3983203             -3.2081840
Ar             -1.8910617             -0.9590910             -1.8526693
Ar             -4.2839621             -3.5731766             -0.8195186
Ar              2.3911243             -4.2009315             -4.8591209
Ar              2.6892402             -3.0130223              1.4483833
Ar              2.2948338              3.5918975              4.5780941
Ar             -2.7116900              1.4923264             -4.3725836
Ar             -3.2780160             -4.4945361              2.8691211
Ar              1.1025506              6.2975618             -0.8023492
Ar             -0.8386593             -5.2941139              5.6670058
Ar              4.6293513             -6.1137178              1.1047357
Ar              0.8397873             -6.1596496              2.4048843
Ar             -4.1157682             -2.1006842             -4.4696973
Ar              0.7871061              0.6102185              6.4655267
Ar             -1.1393169              4.1270059              6.1902972
Ar             -0.2055462             -1.2485147             -5.1623615
Ar              5.2172892              2.7136545              1.8643579
Ar             -1.0359475              4.5881191             -3.2702935
Ar             -2.0210302             -6.8697088             -0.2701301
Ar              2.9143267              0.1713471              3.3529374
Ar             -4.7175544              3.9188595             -2.3123775
Ar              3.4757608             -0.1803679             -4.4119563
Ar              4.9373712             -3.3088973             -1.5662574
Ar             -3.8412149              3.8651684              2.6554934
Ar              6.0468398             -1.4377517              1.8192951
Ar             -5.2224029              0.3100644             -1.3773407
