42
Energy:            -192.8711
Ar             -0.9030907             -1.1620606              0.6266353
Ar             -2.8448927             -4.1675629             -0.0176131
Ar              2.5409337             -1.0999655             -0.5197961
Ar              1.7015107             -1.2196735              3.1103586
Ar              1.0556403              1.8800398              1.1567959
Ar              3.0707884              5.0077685              1.7126184
Ar             -4.3280613             -1.0528460              1.8605587
Ar             -2.5701521              2.0179622              0.2990473
Ar             -0.0933561              0.9136082             -2.2515418
Ar             -3.4239838             -0.9304919             -1.9647817
Ar              0.9176933             -4.2961994              0.9155569
Ar             -2.6158302              1.2134321             -4.9377204
Ar             -6.9468592             -0.5859138             -0.8096405
Ar              3.7574637              1.8542740              3.7123070
Ar              3.4244919              0.9924372             -3.4864333
Ar             -2.6378909             -2.6094365             -5.2140999
Ar              6.0988147             -1.0629143             -1.7128237
Ar              1.2104115              0.6699685              6.2743529
Ar             -1.9669136             -5.8976520             -3.2771441
Ar             -4.3125924              5.3273550             -0.0164007
Ar              3.6778014             -4.3313798              3.4678327
Ar              1.1626823             -3.1969822              6.1836534
Ar              0.7237674              3.0345201             -5.2364687
Ar             -6.0522352              2.3002810              1.4853562
Ar             -3.1993073              4.0063987              3.4016903
Ar              5.2780663             -1.1977498              1.9954147
Ar              3.3908690             -2.8155241             -3.7180805
Ar             -1.5823790             -3.1807500              3.5817440
Ar              1.9033754              4.0324756             -1.7662084
Ar             -0.1279110             -2.8090078             -2.4791024
Ar             -1.8038334              4.1962959             -2.6441164
Ar             -0.6255757              5.1763542              0.8526039
Ar             -2.0455453              2.6189719              6.8021365
Ar              4.4981624             -4.2158209             -0.2728819
Ar              4.5958206              1.9789513             -0.0030040
Ar             -2.0392953             -1.2269173              6.7893365
Ar             -5.1519027              2.4027377             -2.3232183
Ar              0.5114701              3.8235768              4.2605539
Ar             -1.5015287              0.6982916              3.6631237
Ar              4.4241358             -1.3096196              5.6961817
Ar              1.7915087             -5.9818823             -2.3249704
Ar              0.6816687             -0.7565731             -5.4885534
