42
Energy:            -187.2306
Ar              0.1490743              0.3292636              0.0378907
Ar             -2.3019443             -2.1270467             -1.1746759
Ar              2.5777185              2.7031103              1.4996168
Ar             -1.8812659              3.1308871             -1.3764211
Ar              1.0221596              0.3631359              3.8498111
Ar              1.7466139              2.8020543             -2.0625354
Ar             -1.4635872             -1.9201561              2.4035235
Ar              2.0856405             -2.3198124              1.5883540
Ar             -0.9867415              2.9880175              2.2332734
Ar             -0.6710532              0.3558596             -3.5918830
Ar              1.3341437             -2.4650441             -2.1152954
Ar              1.3758561             -5.5892473              0.0693806
Ar             -2.2549310             -5.2469089              0.9178153
Ar             -2.6805431              5.9874965              0.9297862
Ar              0.3003216             -4.8805357              3.7277351
Ar             -3.5444605              0.7048019              0.9050626
Ar             -2.8172980             -2.4462307             -4.8187501
Ar              3.8781039              0.0188699             -0.7157626
Ar              1.0440718              6.1002599              1.9514199
Ar              0.2302884              6.1808951             -1.6848433
Ar             -1.1227591             -5.2637685             -2.7718279
Ar              3.8694896              5.5050357             -0.5892033
Ar              4.6473052             -3.6913689             -0.7052353
Ar             -4.3317908              0.6235564             -2.7526714
Ar             -3.4376171             -4.2757275              4.4596124
Ar              4.0387279             -5.1982366              2.8058166
Ar             -5.0298158             -2.6827925              1.3861644
Ar             -4.1892803             -0.4452946              4.4145881
Ar              4.6737926             -0.0360088              2.9956270
Ar              2.8111019             -2.5470513              5.2816345
Ar              5.3462093              2.7967041             -2.8954590
Ar              4.6183061              5.2986029              3.1538736
Ar             -0.5157121              3.9575241             -4.7806681
Ar              2.9918275              0.1473340             -4.3636516
Ar              1.5691564              3.8600186              4.9535481
Ar              6.1862656              2.7068805              0.7707587
Ar              2.9742008              5.4732766             -4.3044449
Ar             -5.4257407              3.6421525             -0.3525912
Ar             -1.7226406              5.7186332              4.6258330
Ar             -0.9432992             -1.8819418              6.0614858
Ar             -4.4706719              3.3579677              3.3764693
Ar             -1.7181299              2.0087589              5.7487934
