42
Energy:            -190.1551
Ar              1.1063864             -0.7812537             -0.0053492
Ar              1.3690540             -7.0229295              0.1095294
Ar              0.6517886              2.2827301             -1.8784821
Ar              0.7295477              2.3019822              1.8480943
Ar             -2.1797254              0.8125367              0.0246885
Ar              1.3956289             -3.7981139              2.0022577
Ar             -1.8085749             -2.8920132              0.0925994
Ar             -0.8863199             -0.9969533             -3.0516168
Ar              1.3485758             -3.8621819             -1.9327180
Ar              3.9293473              1.4940584             -0.0892504
Ar              2.8398097             -0.5196179             -3.1725940
Ar             -1.6873079             -5.9897090              2.1090104
Ar             -1.3946675              2.1640799             -4.9871864
Ar              4.3820387             -2.3468801             -0.0091684
Ar              3.4108887              4.7458121             -1.9746823
Ar              0.9930293             -0.5715539              6.2800586
Ar             -2.6225037              3.9798087              1.9299950
Ar             -5.2198611             -1.3215838              0.1339766
Ar             -4.8527709             -5.0946274              0.1900280
Ar              3.5062715              4.7331197              1.8274990
Ar              2.5639001              2.6977418              5.0319333
Ar             -3.0290701             -1.1243776             -6.1018645
Ar             -1.2352617              2.2759740              5.0318720
Ar             -3.8385248             -3.0466470              3.2332371
Ar              0.2425675              5.5028112             -0.0267843
Ar              5.6698631              2.0726485             -3.3249332
Ar              6.3983312             -1.6162566             -3.1117138
Ar              2.4014122              2.6657081             -5.1265281
Ar              2.9906262             -0.5231669              3.1034569
Ar             -5.5721683              2.4572692              0.0831840
Ar              4.8090606             -0.0901493             -6.3122887
Ar             -3.9542753             -3.1304237             -2.9595021
Ar             -0.6399171             -3.9134293              5.1546980
Ar             -2.7022207              3.9588844             -1.8871911
Ar              0.1727002              5.4577087             -3.8365390
Ar              5.7726870              1.9893146              3.1239062
Ar             -4.2878965              0.6632836             -3.0082946
Ar             -2.7982837             -0.9723041              6.2525634
Ar             -1.7547105             -6.0511807             -1.8065660
Ar             -0.8172121             -0.8637685              3.0609620
Ar              0.3269193              5.5058283              3.7726681
Ar             -4.1886489              0.7423274              3.1694420
