42
Energy:            -191.8938
Ar              0.3254773              0.3337298             -0.1514719
Ar              1.5453145             -2.1232723              2.2261336
Ar             -1.7391975             -2.5410183              0.5225483
Ar             -1.3016554              0.1000931              3.1233926
Ar             -2.9996487             -0.1538183              6.4701397
Ar             -0.9928641              2.8429718             -2.4298595
Ar             -0.8418655              3.3686137              1.4060522
Ar              2.1064027              1.5441633              2.7702499
Ar              2.3879910              3.2845713             -0.6642515
Ar              1.4606865             -2.8195263             -1.5699505
Ar              4.2357774              4.5288737              2.3776775
Ar             -4.7181398              3.4110786             -2.1953317
Ar             -3.4060972             -2.8449774              3.8412914
Ar              3.4146949             -0.9354503              5.2326809
Ar              6.0900269              2.7119078             -0.4349905
Ar              2.8343003             -4.6676450              4.6595884
Ar             -5.4295611             -2.0694939              0.6341457
Ar              5.8097978             -0.0619218             -3.1233950
Ar             -2.0629927              6.5353557              2.9983251
Ar             -0.6779455             -5.8211152             -0.8130580
Ar             -3.7493247             -3.9158362             -2.2551528
Ar              3.9676180              2.8014034              5.7714064
Ar             -2.2474809              5.9928813             -0.7728838
Ar             -4.5247081              3.9769228              1.5919342
Ar             -0.5286684             -5.1361995              2.9362417
Ar              5.2124019             -2.7543978              2.4005986
Ar              5.7862488              1.0060100              2.9587619
Ar             -1.5583712             -0.9319533             -2.9914645
Ar              0.4873966              1.3299136              6.1401323
Ar              3.8700459             -0.2305664              0.0058091
Ar              0.9610624              4.6907284              4.4001692
Ar             -2.5412994              3.1969664              4.7435620
Ar             -6.8444571             -4.2238318              3.3586796
Ar              2.7311304             -5.3578031              0.9067321
Ar             -0.0689193             -2.4111335              5.5871785
Ar             -5.2805662             -0.4069468             -2.7935672
Ar              1.1946262              6.4321858              1.0050758
Ar             -4.9931057              0.5820972              3.3124658
Ar              2.0683002              0.5422747             -3.3420366
Ar             -3.2399097              0.8566064              0.0183913
Ar             -3.9162300             -5.5181203              1.2115739
Ar              5.1564716             -3.4395777             -1.3467101
