42
Energy:            -187.0399
Ar              0.5445773             -0.7417370              0.9576550
Ar              0.9030471             -4.6010883              0.8078302
Ar             -0.7394213             -2.3099953             -2.1940035
Ar              2.4208125              2.5075108             -0.0437891
Ar             -2.6243188              3.0414288              4.7749763
Ar             -1.0349806              2.5650395              1.3878172
Ar             -2.4185317             -3.1937933              0.9907952
Ar             -3.3753577             -0.0016718             -0.5333849
Ar              2.6109573             -0.4804392             -2.2116078
Ar             -2.6075525             -0.2357770              3.0071898
Ar             -0.1447959             -2.8121551              4.0389526
Ar              5.4875141              1.0773548             -4.1163499
Ar              3.6312304              0.5375406              2.8254449
Ar             -3.4612542              0.8158124             -4.1232262
Ar             -3.4666749              3.6116533             -1.4700627
Ar              5.6651490              0.7300862             -0.3825216
Ar              3.9100623             -2.4626986              0.6719101
Ar             -0.4696631              1.4172810             -1.9950550
Ar              2.2804739              2.9688150             -3.8158869
Ar              5.2665313              4.1538803             -1.8667342
Ar              5.4144465              3.6986934              1.9435671
Ar              0.4685772              0.9004114              4.5637471
Ar             -2.7880390              5.7138793              1.6888260
Ar              0.4394238             -3.9319068             -5.4684304
Ar              2.6205783             -4.1637129             -2.4766742
Ar             -1.8354860             -6.1328482              3.1308753
Ar              5.9260305             -2.3435845             -2.5203320
Ar             -3.9910648             -3.2996557              4.4939628
Ar              6.9702529             -1.2080013              2.5269526
Ar             -2.2548169             -0.6366979              6.6414281
Ar             -5.8644691             -1.5425662              1.6892275
Ar              3.5653897             -1.8753075             -5.4925008
Ar             -0.0340486              5.0547562             -1.2771719
Ar             -5.5837102              0.3595938              5.0277936
Ar             -4.9104810              2.4310297              1.8344488
Ar             -3.0288133             -2.6851109             -5.1540726
Ar             -1.2761697              3.8049180             -4.6974050
Ar              1.7897013              4.1125460              3.2479775
Ar              0.1613727             -0.1343339             -5.2169489
Ar             -4.7844180             -3.1656934             -1.8247204
Ar              3.0698304              6.2301570              0.3973545
Ar             -5.3615626             -5.3181445              1.5076223
