42
Energy:            -183.6255
Ar              0.5065434              0.7711423             -0.6301002
Ar              2.0399597              0.7446246              2.6085735
Ar              2.8540019             -1.0831783             -2.8127145
Ar             -0.9010929              2.9519242              2.2575241
Ar             -2.0913534              0.7002855             -3.1588050
Ar              1.9565890             -2.4260805              0.6839666
Ar             -0.4956165             -2.5123866             -2.0620625
Ar             -1.2135093             -0.8415764              2.1123813
Ar              3.2819682             -3.2952835             -5.7711471
Ar             -2.3317685             -2.2709760              5.3648883
Ar              1.8853427              3.8375328              4.6196118
Ar              1.3534991              2.2945600             -3.8242680
Ar             -1.8340336              3.7931883             -5.1845113
Ar             -1.9087004              4.0461199              5.7396378
Ar              1.3901978             -2.4676675              4.3796419
Ar             -0.2188443              0.7777721              5.4391487
Ar             -0.0874836             -4.7597584             -5.0721583
Ar              2.3154564              3.8651072              0.5780341
Ar              5.4174468             -2.8120189             -0.6882048
Ar             -1.5777804             -4.2834608              1.0587586
Ar              0.2664894             -1.0228146             -5.3861755
Ar             -3.1482685             -2.6288814             -4.7310149
Ar             -1.0891819              3.9794094             -1.4024703
Ar             -4.6841067             -2.1144304              2.4335705
Ar             -3.7191478              1.1874660              3.9766158
Ar              3.7323327              0.4836704             -6.0919001
Ar             -5.9257867             -1.1888517              5.9051823
Ar             -5.6284203              0.1015668             -3.9549543
Ar             -2.8687543              0.4730517             -6.8049449
Ar              1.8523359             -1.3906952             -8.7640133
Ar             -1.5287395             -2.8720892             -8.1009124
Ar             -3.5043308              1.3402001              0.2059547
Ar              3.5255670              0.4634345              5.9426128
Ar             -5.4295470              3.1374918             -6.2643845
Ar              5.1834270              2.5404508              3.1214085
Ar             -4.6170733              3.4981903             -2.6181808
Ar             -3.9983229             -2.0286139             -1.1717868
Ar              4.9341316             -1.4648468              2.8878052
Ar             -3.1917623              0.8081304              7.6623165
Ar              2.4956389             -4.7605869             -2.2709763
Ar              4.4235029              0.8283543             -0.1651712
Ar              0.5237270              1.9877464             -7.5369567
