42
Energy:            -181.6685
Ar             -0.3197024             -0.3285648              0.3107988
Ar              1.2568283              3.0584521              1.2920676
Ar              1.8799668             -1.5981453             -2.7578625
Ar             -4.2511884              0.6672985             -1.1904386
Ar             -3.2442228             -2.5740968              0.2105898
Ar             -3.0635062              0.0604471              2.6998503
Ar              0.3963782              1.7670914             -2.4950075
Ar             -2.2185622              3.1976193              0.2907445
Ar             -1.8190340             -1.5234974             -3.0230171
Ar              2.4628025             -2.3992797              1.8963529
Ar              3.3495086              0.4525245             -0.1249100
Ar             -1.7491564              3.3539461              3.9291078
Ar              5.5885798             -1.5519803             -2.5250824
Ar              0.0110305             -3.9175580             -0.5487567
Ar             -3.0337067             -5.2257693             -2.3491721
Ar             -2.7450010              3.5369390             -3.3670497
Ar              0.3016201              5.3309987             -1.6967291
Ar              0.5193741              0.3501070              3.8290903
Ar              4.2043578              0.3435886              3.7055514
Ar              3.6148464              3.6284033             -1.8856064
Ar              3.6193735             -4.4188166             -1.0139406
Ar             -3.0328585              6.7429910             -1.1279011
Ar             -0.9313924             -3.0450839              3.0849781
Ar             -4.6319045             -3.5165538              3.4859931
Ar              4.9386134              3.3685230              1.7615591
Ar              7.3562946             -4.5134830             -0.7834310
Ar              5.1432830             -4.9903183              2.3758981
Ar             -5.8147717              2.2926750              1.9736088
Ar             -5.9720569             -5.0444952              0.2159738
Ar              6.8015785              1.6637631             -0.9732826
Ar              3.0393529              6.3892803              0.6496262
Ar             -5.7123185              4.1780770             -1.1683385
Ar             -5.6448338             -2.4836794             -2.6146973
Ar             -0.5995573              6.2936454              1.8182535
Ar             -6.1963278             -0.2902531              4.7151705
Ar              0.2496707             -4.6352049             -4.1786595
Ar             -6.5731670             -1.2952906              1.0491924
Ar             -2.4442468             -6.0319633              1.3839066
Ar              1.4311801             -5.9928080              2.1326886
Ar             -4.3047549              5.6658615              2.2305170
Ar              6.6016286              5.5747657             -0.7634269
Ar              6.1585544             -1.5538168              1.1689896
