42
Energy:            -186.0395
Ar             -1.3807566             -0.8377390              0.1683805
Ar             -2.0563428             -0.9764428             -3.4849570
Ar              0.0540488              1.7805647             -2.0893849
Ar             -0.7025685             -0.6651700              3.8291982
Ar              0.7426175              1.9312568              1.5670913
Ar              0.8578504             -3.4257408              1.7901086
Ar              0.2433503             -3.5816913             -1.8718899
Ar              0.9333257              5.5533692              2.6536834
Ar             -1.4848749              4.5018843             -0.0067474
Ar              2.2778031              4.4599974             -0.7114443
Ar             -0.5478095              2.9368672              4.9286730
Ar             -0.6878631              1.6274168             -5.7977574
Ar              2.2598259             -0.7559785             -0.4755944
Ar             -3.4640303             -3.6487561             -1.2542042
Ar              1.6638071             -3.2167191              5.4611263
Ar             -3.6345318              1.7270491             -1.4313268
Ar             -2.9441434              1.8731730              2.2333081
Ar              2.9288433             -0.5971409              3.1585433
Ar              4.0217165             -3.2530468             -2.5888057
Ar             -2.8073962             -3.4868813              2.4364866
Ar             -5.7351367             -1.1164746             -2.8810595
Ar             -4.3902180             -0.7675251              4.5211248
Ar              4.5824657             -3.2401780              1.1468753
Ar              4.5203456              1.8899562              0.8926282
Ar             -2.1011101             -4.5300560             -4.6670222
Ar              3.8326203              1.6784626             -2.8309545
Ar              1.5365638             -0.9152979             -4.1073674
Ar             -2.0366280             -3.3132248              6.1231808
Ar             -5.0708751             -0.9162705              0.8272631
Ar              1.6989271              0.3895323              6.5659180
Ar             -4.2622743              2.8624082              5.5990078
Ar              1.5832163              4.2957887             -4.4084145
Ar              3.1791215              2.9941111              4.2426777
Ar              1.6369738             -4.4892967             -5.2701257
Ar             -4.3002938             -1.9377216             -6.3197669
Ar             -4.3494737              1.6256537             -5.1022876
Ar              5.4236117              0.2947897              5.7354268
Ar              4.3995042             -2.0063766             -6.1744352
Ar             -0.5655206             -1.9179369             -6.9654332
Ar              2.9804634              1.4886177             -6.5557095
Ar             -1.9939966              0.3012368              7.2390153
Ar             -2.1444265              4.3800211             -3.6949867
