42
Energy:            -188.1573
Ar             -1.2242634             -1.0753209             -0.8331923
Ar             -1.4399937              1.9876471             -2.9909104
Ar             -0.0396067              0.0583837              2.5305938
Ar              1.6260684              0.0684432             -3.0070426
Ar             -4.0121277             -2.4372074              5.8836282
Ar              2.8887350              2.4077532              2.7741687
Ar              0.9779961             -3.4058486              2.1917870
Ar              0.6412410              2.1945136             -0.1613474
Ar              1.3980996             -3.4050456             -1.4487139
Ar             -1.6436611             -4.9469225              0.0755972
Ar             -0.9423606             -0.7508517             -5.5471019
Ar              1.4749724              4.5035561             -2.8422427
Ar             -0.3495323             -2.0762736              5.4681474
Ar             -0.9425380              3.6519709              2.8184735
Ar             -2.8795987             -2.1442289              2.3297277
Ar             -3.1607164              1.6333771              0.5402046
Ar             -4.1252830             -0.3819568             -3.4095367
Ar              1.5428997             -3.6369628             -5.0406780
Ar             -4.7540139              3.3952408             -2.5939213
Ar              2.9566360             -0.6090906              0.4099520
Ar             -1.9572453             -3.5819032             -3.4222449
Ar              1.7927505              5.5123229              0.9188317
Ar             -1.9131532              3.9681043              6.4476368
Ar             -1.7329884              4.9749163             -0.7019622
Ar             -3.0561418              0.9726114              4.3847865
Ar              0.7946344              1.5371619              5.7573107
Ar              4.1692695              2.3506897             -4.4733719
Ar              0.6406414              2.6135034             -5.9680609
Ar              1.7619471             -6.6362764              0.4550885
Ar             -4.6609367             -2.9086221             -0.7979244
Ar              3.1421501             -1.0969259              4.1689143
Ar              2.8175963             -0.4857886             -6.4938509
Ar             -1.8541121              5.3095331             -4.5140832
Ar             -2.0614561              0.2957445              7.8966649
Ar              0.1634284             -6.6078924             -2.9581470
Ar             -3.3065069              2.1929380             -6.1440746
Ar              1.6045397              5.1976519              4.9748766
Ar              4.1989099              2.7524171             -0.7711810
Ar              4.5803839             -2.0503866             -2.8980379
Ar              4.4651800             -3.9741767              0.6085521
Ar              3.8777050             -5.8039235             -2.7347977
Ar             -1.7672879             -5.2759677              3.9515357
