42
Energy:            -185.9557
Ar             -1.0748165             -1.0506666             -0.9618933
Ar              1.0243766             -3.6313898             -4.6642348
Ar              0.7445437              5.1106479             -0.2368282
Ar             -1.9682101             -3.9620706              4.2051811
Ar              0.6987035             -3.0076533              1.6526634
Ar              1.6939099              1.3197542             -0.1913060
Ar             -1.0723831              2.4899417             -2.1240009
Ar             -1.4375859              2.6065459              1.6177411
Ar              0.9967680              0.0401298             -3.9346428
Ar             -2.9352140             -0.0826396             -4.0132329
Ar             -2.4400460             -4.4429066              0.4966117
Ar              0.8872951              0.2234650              3.2230930
Ar              4.3405125             -1.9557220             -4.7857220
Ar             -2.6323875             -0.9207361              2.2838041
Ar              4.0701052             -0.9272681              1.5854442
Ar              2.4370197             -2.1580241             -1.4876367
Ar             -2.3515395             -3.7516624             -3.1836167
Ar             -4.8070192             -2.0054917             -0.9203835
Ar              2.1649592              3.5969988             -3.3610093
Ar              2.3577964              3.5668459              2.7483877
Ar             -4.1910754              1.5309775             -0.6494108
Ar             -0.7249936              2.7211558             -5.8151758
Ar             -5.4615662             -3.6426748              2.4183613
Ar             -4.8415073             -1.6320918              5.4231087
Ar             -3.7904247              1.8362689              4.5170226
Ar              1.5493718             -2.8883378              5.2627386
Ar             -0.8767487              5.8623370             -3.6632576
Ar             -1.3390379             -0.5692319              5.9819229
Ar              4.5613542              0.7975378             -2.3712451
Ar             -0.3798751              3.0894864              5.2715526
Ar              4.0511089             -5.2370901             -2.9408918
Ar             -3.0461767              5.2356275             -0.6192474
Ar              3.6504601              1.5475343             -6.0724273
Ar             -6.1956607              0.0728896              2.1628845
Ar             -4.0507862              3.5947430             -3.9438533
Ar             -2.5635935             -3.5555851              7.8765985
Ar              5.8461102              3.9341250             -3.9655041
Ar             -5.4085048              3.8813267              1.9314753
Ar              3.8912685             -4.7124325              0.8265669
Ar              0.6439064             -5.3676751             -1.3138244
Ar              4.4096237              3.9539342             -0.3717916
Ar              6.1251655             -2.4617859             -1.3309280
