42
Energy:            -187.2319
Ar             -0.9105714             -0.2330568              0.2881227
Ar              1.0612221             -2.8777735             -2.1701971
Ar             -2.2829928             -2.1651005              3.0612799
Ar              0.9567600             -0.2128034              3.5792858
Ar              1.2573229              0.8423155             -2.3662351
Ar             -2.0096986             -1.1399405             -3.1967165
Ar             -1.5929777              2.5119787              2.7161811
Ar             -1.3879877              3.2580559             -1.0439049
Ar              0.8161851             -3.3910836              1.5579265
Ar              1.6098398              2.3538807              0.9206840
Ar              2.9164356             -0.8907300              0.3332649
Ar             -4.3231770              1.6690535             -2.8318794
Ar              4.5803630              1.1478264              2.8710669
Ar              3.8523120             -2.6359177              3.4892250
Ar             -4.6240992              4.2246618              4.1883401
Ar              4.7976850              1.9030180             -1.0826152
Ar              6.4279915             -1.6240231              0.6763283
Ar              4.3519425             -1.3418342             -3.0312642
Ar              0.7117726              5.8250502              1.2831416
Ar             -4.5397973             -0.9069121              0.0577813
Ar             -4.7592857              2.7391513              0.6825672
Ar             -4.7296142              0.4799849              3.6384782
Ar             -5.0419084             -3.6578955             -2.5308408
Ar             -2.1020361             -3.6008678             -0.4132107
Ar             -1.0493058              2.2564355             -4.7699692
Ar              3.6349773              2.0387149             -4.8164306
Ar              1.1377344             -1.0434708             -5.4759169
Ar             -1.5541430             -6.0357841              2.4265835
Ar              2.5703659             -6.3063321              2.7580328
Ar              0.5146482             -6.3132444             -0.7351986
Ar             -2.9681745              5.9102491              1.2180151
Ar              1.8586549              3.5068774              4.3388517
Ar              6.3267572             -5.1826631              2.3778207
Ar             -4.9927485             -4.4082390              1.6753152
Ar             -1.6077017             -4.9622808             -3.7894006
Ar             -1.1682268              5.7606137              4.5683473
Ar              3.9030004             -4.3892454             -0.3302382
Ar             -3.5169554             -4.7789791              5.3487756
Ar              0.3912378             -3.9072661              5.1219434
Ar             -3.3827194             -6.9507283             -0.8965070
Ar              4.3410499              4.7264313              1.4367281
Ar              2.1237223              4.4609788             -2.0782456
