42
Energy:            -185.3690
Ar             -0.3275543             -0.2150040             -1.2342594
Ar              3.0583312             -1.5399226             -0.4791655
Ar              2.3909779              2.1472081             -0.3332813
Ar             -1.0645963              2.6916747              0.9884709
Ar             -1.7207204             -2.4489970              1.3595081
Ar             -2.4061103              2.5774385             -2.4910121
Ar              0.3097235             -3.9552782             -1.3924281
Ar             -3.0578591             -2.5617660             -2.1848979
Ar             -4.5626638              3.2478860              2.3033076
Ar              0.3566996              5.0251507             -1.6079329
Ar              1.6482658             -3.8283418              2.1366787
Ar             -3.8085660              0.3162450              0.0883403
Ar              4.4294255             -1.4366623              3.0413706
Ar              3.7411927             -5.2523282             -0.6785601
Ar              1.0358547              2.0919559             -3.8668256
Ar              4.4632235              0.7424825             -3.1192055
Ar             -5.3628553             -3.0492451              0.7961619
Ar              1.6981279             -1.6636380             -4.0111674
Ar              3.7534440              2.2648216              3.1865868
Ar             -6.1339124             -0.1056403              3.0340313
Ar              6.5335324             -2.8313544              0.2112355
Ar             -2.3744912              5.9324372             -4.0576585
Ar             -2.4612886              0.4198756              3.6310291
Ar              3.8078358              4.4726537             -2.9712768
Ar              5.1454019              4.5712271              0.5322566
Ar             -3.1115809              5.5850197             -0.3137846
Ar              1.0027278             -0.1257934              2.2965985
Ar              0.2804875              2.8075123              4.5307138
Ar             -1.8115182              5.6490081              3.2194690
Ar              5.1658752             -2.9410988             -3.2961638
Ar             -1.4357458             -5.6213009              3.3282359
Ar             -1.7067957             -0.2967869             -4.8071153
Ar             -5.1870548              0.2495661             -3.4531275
Ar              5.8328494              0.8470867              0.3863588
Ar             -2.8416322             -5.7074551             -0.1690565
Ar              1.6703055              5.1271107              1.8759155
Ar             -5.8849662              3.2036882             -1.2133956
Ar             -6.7130872             -3.1468137             -2.7104497
Ar             -7.4817977             -0.1596802             -0.4812175
Ar              7.2695211              3.1044428             -2.2571563
Ar             -3.9746512             -2.9717161              4.2987381
Ar              5.1037135             -5.1507012              2.8489186
