42
Energy:            -180.9937
Ar              1.4038502             -0.1690948              0.8073918
Ar             -0.9593240              0.2571810              3.6836390
Ar              2.6723505             -0.7118370              4.2427428
Ar              0.6830139             -3.3502837             -0.9370934
Ar             -0.8584495              1.6489539             -1.5030111
Ar              0.1318022             -3.1400290              2.7419216
Ar              0.2414182              3.2044705              1.6630624
Ar              2.6993312              2.7448052             -1.1437766
Ar              2.0080366             -0.4086837             -2.8842280
Ar             -2.1047729             -1.2869209              0.4571817
Ar              3.6336274             -3.1066724              1.4447397
Ar             -1.5647476             -1.5214287             -3.2423545
Ar              2.7711824              5.8229474              0.9953049
Ar             -2.3143919             -4.5936386             -5.1682659
Ar              1.3835336              2.7565832              5.1899247
Ar             -3.3088251              2.1438163              1.2937049
Ar              0.9947070              3.0034133             -4.4634469
Ar              2.9062263             -6.2816105             -0.5007983
Ar             -2.2642946              3.6616493              4.5151470
Ar             -3.4435320             -4.2285219              2.3524211
Ar              1.5181426             -3.7418691              6.1409533
Ar             -3.6304217              4.0768213             -1.8664545
Ar             -4.5477001             -0.7538691              3.2901565
Ar              1.3157790             -3.6338830             -4.6264973
Ar             -0.6263218             -6.3372138              0.9567742
Ar             -2.9431757             -4.4352987             -1.3834217
Ar             -2.6042698              1.7117349             -4.7927772
Ar              4.9350500             -0.1495863             -0.4273692
Ar              3.9432137              5.8698078             -2.5741309
Ar              0.0420555              5.3170816             -1.6433424
Ar              3.8399941              2.3011636              2.3358681
Ar              0.4097600              6.2282699              3.8769130
Ar             -4.5064443              0.3612862             -1.8157375
Ar              4.0366618              5.3580666              4.5245489
Ar              0.2814588             -0.3010094             -6.2326004
Ar             -3.1471653              7.3388233              4.6089010
Ar             -2.0136887              5.3751132             -4.9234567
Ar             -0.1376287             -6.5650637             -2.7677697
Ar             -1.1497079             -6.0715117              4.7274469
Ar              2.3635246             -6.1243473              3.2727395
Ar              1.3757452              6.7948054             -5.0400468
Ar             -2.3326939              5.8083724              1.2471963
