42
Energy:            -186.0818
Ar             -1.0093465              0.3014611             -0.1556183
Ar             -0.9517238              2.6009129             -3.0333340
Ar             -2.2516038              3.3906813              1.1749364
Ar             -0.3382532             -2.1602211              2.4619344
Ar              0.0615982             -3.0032668             -0.9918579
Ar              0.3949993              1.3366075              2.8950163
Ar              1.4501580             -0.1690005             -2.9046849
Ar             -2.1825443             -1.1234368             -3.1467642
Ar             -1.9938046              3.1960388              4.9323722
Ar             -3.4759882             -2.4690343              0.2542108
Ar              2.0745445              5.0303036             -3.2620844
Ar              0.3651693             -5.0538037              4.5409606
Ar              2.5021745             -4.3501229              1.4125386
Ar             -0.4067066              5.9608679             -0.6171497
Ar              1.0101687              4.8809487              2.7743672
Ar             -2.2456293              6.6192651              3.0054271
Ar             -3.9003890              4.5447874             -1.9849250
Ar             -3.2560071              0.2091849              2.8643118
Ar             -2.7128111             -4.8658513             -2.5435346
Ar             -4.5077878              0.9850894             -0.8708409
Ar              2.6252982             -0.6991083              0.5963072
Ar              0.9886526             -6.4181492             -1.6569000
Ar              3.0831577             -1.5091079             -5.9140680
Ar             -1.5066622             -5.5062414              1.2022121
Ar             -3.3061783             -3.4835434              4.0432366
Ar              1.6189576              2.7732612             -0.3452324
Ar              2.6890981             -1.1666442              4.3691779
Ar              3.4418281             -3.3220096             -2.3157365
Ar             -3.3135657             -3.1429191             -5.9549025
Ar              3.8969382              2.3629931              2.6557379
Ar              0.2867915             -3.6473662             -4.5732341
Ar              3.4745247              5.9238546              0.1856288
Ar              1.9721336              2.2340165             -5.6745031
Ar             -1.5448555              3.2528406             -6.6745208
Ar              0.0301817              6.1060256              6.1533800
Ar             -0.5968290             -0.3672621             -6.2969114
Ar             -0.9046833             -0.5593661              5.7822011
Ar              1.3018610             -7.8425328              1.9555624
Ar             -5.6456579             -2.1417510             -2.9091842
Ar             -1.3739800              6.1436588             -4.2789500
Ar             -4.2163178              1.5429248             -4.6030701
Ar              1.7266535              2.6177970              5.9855483
