42
Energy:            -184.8090
Ar             -0.0934290             -0.8329386              0.1253800
Ar              1.0877234             -4.1857781              1.2049425
Ar             -0.7521818             -2.0420597              3.5711158
Ar              0.0658122              1.5035193              2.8672276
Ar              1.5518001              2.8000544             -3.2351310
Ar             -0.0616054             -3.5026169             -2.3753337
Ar              3.3854213              2.6986022              3.7933862
Ar             -3.9925562             -0.2203343             -1.3687103
Ar              2.4933432             -0.6811271             -2.4466807
Ar             -1.3254187              2.5396816             -0.4248221
Ar             -2.7496593              3.7907742              3.0525240
Ar              2.5081362              1.9494931              0.2003011
Ar             -2.7401714             -3.3093742              0.5193748
Ar             -0.9773791              0.1073411             -3.2774201
Ar              2.7518629             -0.9636236              2.5207415
Ar             -2.1786161              0.8558299              5.6862366
Ar              0.1414481              3.9117470              5.5886909
Ar              1.5840404              0.1940361             -5.9979398
Ar             -3.7619023              3.1755175             -3.0603027
Ar             -4.2924581             -2.1043090              4.8078038
Ar             -3.6434208             -3.2846832             -3.3144012
Ar              3.6562057             -4.0406789             -1.5387843
Ar             -1.1337629             -2.4075416             -5.9620392
Ar              2.2009093             -3.6796448              5.0316215
Ar             -5.2662162              2.7952273              0.4208905
Ar              0.6008087              4.9586321              1.6637542
Ar              5.1708433              2.0710018             -2.4015532
Ar             -4.1163660              0.0593632             -5.1880808
Ar              5.3381863             -0.9182445             -0.1180563
Ar              5.1966843             -0.7169056             -4.9411831
Ar             -1.2324385              2.7760454             -5.8060354
Ar             -5.6304372              1.7440229              4.3765091
Ar              4.1757414              2.8706680             -5.9421385
Ar              2.4741450             -3.3560730             -5.1122687
Ar              1.5111140              0.0600737              5.9358527
Ar             -3.2108682              0.1869594              2.0829956
Ar              4.7627396             -4.0501002              2.1009892
Ar             -1.0615706             -2.4641296              7.1984736
Ar             -0.8490274              5.5111315             -2.9767880
Ar             -3.0645250              5.8202565             -0.0364369
Ar             -7.0121931              1.3450553             -2.8284104
Ar             -3.5931670              4.1685749              6.6654320
