42
Energy:            -189.3462
Ar              1.4357212             -0.9471583              0.0264790
Ar             -3.1264237              2.4864174             -1.7034798
Ar             -1.6478062             -2.2097925              1.4541543
Ar              2.2122073              4.2198139              0.6065801
Ar             -0.7791698              1.7517480              1.2421028
Ar              3.0434531             -2.4238035              2.9353881
Ar              0.7594469              2.0162783             -2.0415547
Ar             -1.7269967             -0.7841077             -1.8394376
Ar              3.4149854             -0.5557568             -3.1049999
Ar              4.4873468              2.8219667             -1.9432176
Ar             -4.1449044              0.4262305              1.1630799
Ar              2.5864529              1.3316981              2.7894418
Ar             -3.2534832              0.8229761             -5.0403661
Ar             -1.1621986              3.9494701             -4.4994906
Ar             -0.1792084             -0.5521090              4.2499066
Ar              0.2314307             -0.2791884             -4.9943515
Ar             -0.0572213             -4.2089636              4.3137311
Ar              5.0160739             -0.1419831              0.3053435
Ar              0.8040478             -4.7773173              0.6821390
Ar             -5.4098099             -0.5090473             -2.2464199
Ar             -2.7884636              2.0288122              4.4074971
Ar             -3.8105879              4.1791999              1.5680276
Ar             -2.5940290             -2.8684038             -4.7586960
Ar             -6.6734745              2.6832942             -0.3504912
Ar              2.9826639             -0.3901780              6.1758569
Ar              0.8212708             -3.3163137             -2.8338731
Ar              4.0198314             -3.5577195             -0.7495033
Ar             -2.4398468             -4.4796566             -1.3770638
Ar             -3.9017855             -1.6714429              4.2716309
Ar              3.2596586              4.7595289              4.1800115
Ar             -1.0347899              5.2694317             -0.7090756
Ar             -2.8524890             -5.6025904              2.2274000
Ar              5.6832649              3.2497050              1.6980207
Ar             -0.4569868              4.9059444              3.1271649
Ar             -5.2359193             -3.0412081              0.6960074
Ar              2.5610638              2.6141481             -5.2440790
Ar             -6.4518300              2.1144484              3.4773915
Ar              0.6877593              2.6368853              5.8685964
Ar             -6.0335830              3.0379511             -4.0115094
Ar              5.9277845              0.0955593              3.9102546
Ar              1.9697822              5.5116552             -2.9316390
Ar             -4.6915431              5.8094164             -1.7534681
