42
Energy:            -187.7474
Ar              1.9476534             -1.0041823             -0.0615015
Ar              1.4162968              2.5889683             -0.7339645
Ar             -1.4714623             -2.3055495              0.6143006
Ar             -0.5279136              0.9200008              2.0060713
Ar             -1.5307835              0.7594316             -1.6071022
Ar              2.6014253              2.7476470              2.8160278
Ar             -4.1681269             -0.0571634              1.4935602
Ar              1.1689671             -2.8015371              3.0524390
Ar             -1.8798178              4.4638194             -1.5597129
Ar             -2.3005324             -2.1396519              4.1364719
Ar             -0.2458167             -2.5302242             -2.6691037
Ar              2.1202224              0.0414813             -3.5932789
Ar              1.4466731              6.0199981             -2.2665034
Ar             -2.4539331             -5.2874593             -1.3980099
Ar             -1.4661683             -5.5733425              2.3443921
Ar             -4.9560822              2.1793952             -1.3079725
Ar             -4.0320474             -1.8654243             -2.0791396
Ar              4.3906844             -3.6018316              1.0290377
Ar              1.2665482             -2.8474249             -5.9780990
Ar              4.0597432              5.0591107              0.2211702
Ar              4.8234260              1.3512954              0.0805067
Ar             -4.7046333             -3.8120572              1.4260901
Ar              3.3869843             -3.3912506             -2.7276460
Ar              4.0506158             -0.5797242              3.2390137
Ar              5.7301999             -0.4233071             -3.0293599
Ar             -4.0982633             -5.2923804              4.9778966
Ar              0.5623553             -5.9307138             -3.7757783
Ar              4.0368712              3.2542357             -3.2270382
Ar              0.3077163              5.3992447              1.3470100
Ar             -1.3717775              6.2728754             -4.8552750
Ar             -0.4389007              3.7832560              4.6323412
Ar             -3.4247657              2.8979529             -4.6144212
Ar             -0.2745506             -4.8476165              5.8219258
Ar              0.2486332              3.0092438             -4.2533674
Ar              0.7106962              0.1419915              5.3315803
Ar             -1.4730347             -0.2453035             -5.2322735
Ar             -3.1560651              1.3323815              4.8604857
Ar             -3.0716501              3.5625382              1.7987653
Ar             -2.5550646             -3.9590621             -5.0738533
Ar              1.1306404             -4.8746635             -0.1735553
Ar              2.2364409             -6.3173017              3.1280802
Ar              2.3935330              5.5782571             -5.8674830
