42
Energy:            -189.1189
Ar             -0.2808493              1.7889284              0.2271310
Ar             -2.9409631             -0.3087582              1.5525080
Ar             -2.9632436              0.7645577             -1.9785977
Ar              2.4106973              0.9818528             -2.1339437
Ar             -0.0204241              0.1908828              3.6695131
Ar              2.9057814              0.2031775              1.3506669
Ar             -6.0503643             -0.6894980             -0.4697209
Ar              5.7846535             -0.3824893             -0.8136061
Ar             -0.2304590             -1.2877843             -3.1141389
Ar             -4.4665871              2.9496746              0.6334635
Ar             -1.7666306             -0.6387187             -6.3274468
Ar             -2.8269495              2.6305870              3.8731359
Ar             -0.3666524              2.2992565             -4.1583344
Ar              2.0576859              0.0984935             -5.8456101
Ar              2.2223937             -2.7146775              3.6465571
Ar              3.1062006              3.6377345             -4.7380627
Ar              3.4698096              1.0954111              4.8229061
Ar             -3.4336387             -0.8319506              5.2318934
Ar             -3.0413715             -2.9670250             -1.0057681
Ar              5.9895449              2.1458569              2.0950622
Ar              4.9684724              3.4053203             -1.3268186
Ar             -2.5571935              4.4570078             -2.1186329
Ar              0.8446358             -5.5357734              1.4630155
Ar              0.6246731             -4.6903422             -2.1757155
Ar              0.6145641              3.7123755              4.7537822
Ar              3.6430039             -3.3388592              0.2210797
Ar             -1.5604829             -3.3634422              3.2922379
Ar             -3.8606222              2.3227887             -5.3204341
Ar              5.7537030             -1.5548852              2.9005029
Ar              2.6049545              3.8153941              1.6666262
Ar              0.9737087             -3.4923775             -5.9016179
Ar              0.2035715             -1.9387577              0.4113945
Ar              1.2160288              4.6202612             -1.6569801
Ar             -1.1505654              5.0722584              1.4801853
Ar              5.4701318              0.7802202             -4.3192302
Ar             -5.2196146             -3.0419486              2.4045058
Ar             -6.3029178              2.3921309             -2.5655954
Ar              3.4513454             -2.3363830             -3.3103651
Ar             -5.4563415              2.1162606              6.5137851
Ar             -5.0013129             -1.2330508             -4.1796696
Ar             -6.1761462              0.6586494              3.0869351
Ar             -2.4415524             -3.9878440             -4.5224802
