42
Energy:            -183.8808
Ar              0.8620417              0.6913632              1.2778342
Ar             -2.5519084              2.4970672              1.8265012
Ar             -2.1127538             -0.2946536             -0.5255585
Ar             -4.9660334              1.8934733             -1.4552584
Ar             -0.1847903             -2.3114782             -2.8668870
Ar              0.0378037             -3.0138529              0.7282320
Ar              3.7854150              2.1609364             -0.2801347
Ar              3.0526403             -1.5188013             -0.7524060
Ar              4.4671772             -0.3240920              2.4252020
Ar             -1.4695505              3.2377308             -1.6252914
Ar             -2.5423143              0.5371630             -4.0722812
Ar              1.4148591             -1.8552111              3.9538116
Ar              3.1329357             -1.8884495             -4.4454168
Ar             -2.0162899             -1.0009422              3.1058113
Ar              1.1143100              0.9687307             -2.5416999
Ar             -4.0328945             -2.6267527             -2.5866857
Ar              5.2453032             -3.7959063              1.1705653
Ar              3.2745786              3.0931673              3.3121009
Ar             -0.0465439              1.7854026              4.6647663
Ar             -4.4585821              1.2236204              4.7824877
Ar              0.3995991             -0.2227665             -6.1595731
Ar              2.3177503             -5.0349300             -1.4309685
Ar              3.4082680              2.0380613             -5.1327653
Ar              4.7315145             -3.1933399              4.8789027
Ar             -3.8854126              4.1888867             -4.2353722
Ar              0.9488833             -5.0478429             -4.9866953
Ar              0.6332396              4.4041462              1.1256317
Ar             -6.2337534              3.1830539              1.9569028
Ar             -4.0971592              5.3891835             -0.2650633
Ar              3.4392031              0.4527944              5.9924263
Ar             -3.5787830             -3.6859360              0.9744643
Ar             -5.3009878             -0.3966043              1.4065657
Ar             -0.2514880              3.3379344             -5.1920976
Ar              2.2108080             -5.3121576              2.6108986
Ar              1.9549513              4.6107221             -2.4473519
Ar              4.1365490              5.7429618              0.4839553
Ar              5.7254183              0.2084251             -2.7389994
Ar             -5.0927879             -2.6308879              4.4120135
Ar             -1.5217479             -5.4981277             -1.7478174
Ar             -2.2041674             -2.9573777             -5.8706045
Ar              5.7337547             -3.6376427             -2.5058487
Ar              5.6666185              4.0842591             -2.8191535
