42
Energy:            -186.9089
Ar             -0.4295420             -1.1131980              0.5359566
Ar              2.9938494             -1.3109535              1.4807771
Ar              2.1383307              0.4975532             -1.5972374
Ar             -2.7085390             -3.1533052              2.4978329
Ar             -0.9984003              4.6201488              3.1799822
Ar              2.0213567             -3.1997236             -1.5558800
Ar             -1.0894113             -0.6601747             -2.9396117
Ar              1.3374914              1.9609811              1.7537842
Ar             -1.1635477              2.3185297             -0.8741681
Ar             -4.5463983              0.5881995             -3.6358968
Ar              3.8369904             -1.7234217             -4.4553604
Ar             -4.7500377              3.8486633              3.1992084
Ar              5.0572785              1.8090500             -3.2651783
Ar              1.2653687              2.7794915              5.4443545
Ar              0.8482533             -4.3026343              1.9285986
Ar             -2.2899607              1.1910833              2.5485586
Ar             -3.0021376             -1.0586079              5.5279300
Ar             -3.5481252             -3.1254362             -4.1230769
Ar             -3.9214134             -1.4697513             -0.6220679
Ar              4.5530067             -4.5838496              1.0360648
Ar              5.5075505             -1.5279478             -1.1853416
Ar             -2.9813019              5.3767332              0.1117161
Ar             -2.4054386              2.6060940              6.0138302
Ar             -1.4883327             -4.2339835             -1.1765610
Ar              0.3397014             -3.2561608             -4.9937338
Ar              4.0958357              0.7750695              4.2697169
Ar              4.4436557              4.8629325             -0.9521401
Ar              1.3377745              0.7685927             -5.3466849
Ar              1.6289798              3.7779714             -3.1664503
Ar              0.9043570              5.3217389              0.1299394
Ar              3.6165076              4.5438881              2.8627877
Ar              0.4799509             -0.7153926              4.1577739
Ar              5.0042052              1.6473241              0.7075472
Ar             -1.7206423              2.7972382             -4.5273528
Ar             -5.5311708             -0.5185878              2.6139009
Ar             -4.8181970              2.0869820             -0.1367800
Ar             -5.7512996             -1.3474708             -6.6456978
Ar             -5.9309367              1.3659450              5.8092417
Ar             -0.4461143             -4.0338362              5.4553341
Ar              6.4884512             -1.5888037              2.5256875
Ar              3.3733944             -3.1494717              4.5985971
Ar             -2.0591287             -0.5059192             -6.4834814
