42
Energy:            -187.6684
Ar             -0.6073166              0.4214735             -0.1421712
Ar              0.0434111              3.0228670             -2.5120848
Ar              1.8348363              0.5802042              2.5857268
Ar             -1.3894823             -2.8912256             -1.3078425
Ar             -0.6452605             -2.1415919              2.3599443
Ar              0.5452305              3.6139316              0.9733533
Ar             -2.9146860              3.2680660             -0.3490405
Ar              0.8229744             -0.3928921             -3.4405656
Ar              1.9664030             -2.0723159             -0.2712636
Ar             -3.9806037             -3.6705688              1.3705896
Ar             -3.5532686             -1.3191280              4.4013672
Ar             -4.1500308             -0.0921588              0.6476637
Ar              4.9499785             -1.1926779              1.6086345
Ar             -0.0570208             -3.7956541              5.5680425
Ar             -1.8872107             -2.4678883             -4.9470523
Ar             -1.8769329              1.7249247              3.0262886
Ar             -3.0123194              4.4408956             -3.9157718
Ar              2.8525630              5.2106246             -1.4525457
Ar              2.4213007             -4.3797083              2.5604977
Ar              1.6811602             -3.9240439             -3.6061984
Ar              0.8492724              3.7853786              4.5925300
Ar              3.0321292              1.4533127             -0.8132092
Ar             -2.8454454              0.6126837             -2.9785374
Ar              3.9997887              3.6972888              2.1153674
Ar             -0.8470072              6.3599252             -1.1190135
Ar             -2.8127428             -6.2756718             -1.0622135
Ar             -0.0287504              0.0022500              5.7094775
Ar              4.4537967             -1.2861438             -2.9112869
Ar             -1.1670056             -5.8241470              2.5192747
Ar             -4.8768779             -2.5137575             -2.2852474
Ar              0.9269887             -5.7635667             -0.5303125
Ar              4.5831913             -4.5248099             -0.7406287
Ar             -5.2362341              3.2977483              2.4894819
Ar              3.9041689              1.7957397              5.4243774
Ar             -4.5593001              6.5229416             -0.1240127
Ar              0.6777607              5.7361970             -4.7762145
Ar             -4.0344102              0.3290847             -6.4591779
Ar             -0.6712391              2.0179258             -5.9307354
Ar              1.6154736              6.8917529              1.9856885
Ar              3.2014914             -1.8420255              5.0659804
Ar             -2.0712494              5.5529457              2.6012929
Ar              3.0853180              2.4821926             -4.4561734
