42
Energy:            -188.6021
Ar              0.7073273              0.1919916             -1.7025494
Ar             -2.5688397             -1.4849552             -0.8344541
Ar              1.3094273              3.7189473             -0.8823619
Ar              3.6812515             -1.9264246              3.1493203
Ar             -4.5555085              0.3779660              1.9152181
Ar              0.5384966             -3.3491028             -1.7405318
Ar             -1.3454076              1.7694475              0.7651866
Ar              3.5931936             -1.8159296             -0.4679036
Ar             -3.3614410              3.6206498              3.3618216
Ar              2.0126324              0.5689281              5.2084148
Ar             -2.5501912              1.4635341             -2.9875623
Ar              2.4115766              1.2144586              1.4466067
Ar             -4.3079828              3.5940420             -0.3840568
Ar              4.0950091              1.4123674             -2.2642065
Ar              5.6077357             -4.5063049              1.1947891
Ar              2.9174563             -1.6967648             -4.1372406
Ar             -2.4282776             -4.7006361             -3.2966412
Ar             -5.2365570             -3.9512295             -0.8261570
Ar              3.6559222              5.0346569             -3.3748121
Ar              0.9266605              2.5093396             -4.4728474
Ar              4.9127126              4.0247777              0.1710028
Ar             -4.4835285             -1.7611191             -4.1397871
Ar             -3.0815142             -2.7900222              3.0918951
Ar              0.1915983             -1.6307988              1.5224687
Ar             -1.5741163              5.0064485             -2.8037258
Ar             -0.8062145             -1.4544890             -4.6456890
Ar              3.6450492             -5.3708773              4.5506008
Ar              5.9949700              0.5262920              1.2433820
Ar              0.4133812              3.5313424              3.5431821
Ar              0.3043910             -7.0210820             -1.8002012
Ar              2.3638971              6.1444509              1.8204134
Ar             -1.3204422              5.6205674              0.9046456
Ar              3.6975838             -5.1599087             -2.1634360
Ar             -3.6260538             -7.6042612             -1.3079174
Ar              1.8944802             -4.9066770              1.2922790
Ar             -1.7827145             -4.9619143              0.5315112
Ar              4.2609016              3.3249194              3.8035337
Ar             -1.5222048              0.3629840              4.2108288
Ar             -5.8960818              0.3085908             -1.4805312
Ar              1.1531671              7.3505730             -1.5655620
Ar              0.4724519             -3.0943139              4.8193234
Ar              1.0045110             -4.9164484             -5.0087256
