42
Energy:            -192.3016
Ar              0.1074029             -0.0136709              1.3123037
Ar              0.8907612              3.3215752             -0.0884173
Ar              4.7145243             -4.0726193             -2.3499606
Ar             -2.6059584              2.1624733              0.0287597
Ar             -0.6923737             -3.5234872              0.5000216
Ar             -4.6604582             -1.2882022              4.8222441
Ar             -2.3044774              1.4932005              3.7351086
Ar             -1.8568017              5.6063391             -1.3803876
Ar              1.0485774             -3.2682397             -2.8251189
Ar              1.2690513              2.6771317              3.6196107
Ar             -1.0611339             -2.2411138              4.0653141
Ar             -1.6641244             -0.8609814             -1.8718392
Ar              5.5139812             -0.4690026             -1.5349285
Ar             -4.5669607              3.4237885             -2.8640730
Ar              3.8741393              4.7466532              1.7895571
Ar              0.1081857              0.4495890              6.4165087
Ar              3.6075721              1.1417183              1.1559264
Ar             -3.5990967              0.2931515             -4.8197397
Ar              1.1378840              6.9828110              0.4596495
Ar             -0.9378345             -7.0453505              1.6403534
Ar             -3.3981566             -1.1745964              1.3841281
Ar              2.5127277             -1.0532834              3.9517876
Ar             -2.3685872             -3.3642422             -4.5177834
Ar              4.2701860              3.2113304             -1.8056716
Ar              1.6779048             -4.6627631              3.1579747
Ar             -1.4956329              4.9055783              2.3333345
Ar             -5.7370385              1.5568204              2.1015781
Ar              0.0572245             -0.5556839             -5.2418693
Ar              4.8742731              1.8714623              4.5159684
Ar             -4.9584978              4.9596393              0.6662080
Ar              2.4959813              2.3293715             -5.0153222
Ar              1.8300669              0.2894577             -1.9819042
Ar             -1.3345688             -6.1205298             -2.0817440
Ar             -3.6544898             -4.6146582              2.6247090
Ar              3.7184638             -1.3089599             -4.7525236
Ar              1.5183350              5.4557816             -3.0698970
Ar             -0.8956737              2.5195917             -3.3006618
Ar              2.8320409             -2.3949677              0.3962746
Ar             -4.0941258             -3.7041315             -1.1813693
Ar              5.9303975             -1.4736941              2.3028673
Ar              2.0720465             -5.9824632             -0.3955955
Ar             -5.3467703             -0.0005643             -1.4906445
