42
Energy:            -192.8790
Ar              1.3366191             -0.2304325             -0.8412540
Ar              1.9620708              0.8200501              2.6720740
Ar             -2.2129696              4.7128623              0.2844362
Ar             -2.2231758             -1.2711010             -1.1435067
Ar              1.4069342              3.3851629              0.0261299
Ar              2.4195169             -3.6978007             -0.0739935
Ar              4.8011755              2.9592858              1.5300029
Ar             -1.3093107              1.3125181              1.2062116
Ar              1.5797567              4.2635766             -3.6023039
Ar             -0.2755733             -2.0633077              1.9641093
Ar              0.4133159             -2.8533176             -3.2779522
Ar              4.7042142             -0.7438454              0.6455309
Ar             -3.9251777             -0.9723279              2.3130990
Ar             -1.2625653              0.4139336              4.7385314
Ar             -1.1725696              2.0840055             -2.3278105
Ar             -4.3738582              2.4897113             -4.1272954
Ar              2.6614779              6.0460142              2.2684944
Ar             -1.1837406             -4.7227280             -0.4117247
Ar             -0.1925723              3.9148603              3.4920092
Ar             -4.8783419             -3.6304040             -0.1542434
Ar             -3.1621061             -4.0461587             -3.5200503
Ar              3.0688321             -2.6508139              3.5157226
Ar             -0.1860713             -8.2653391              0.3043343
Ar             -2.8510361             -4.5354172              2.9828964
Ar              0.7768973             -5.5815064              2.7426396
Ar              4.1352757              1.8809049             -2.0652671
Ar             -4.5339942              1.6891593             -0.4492140
Ar              4.0257188             -1.8329626             -2.9375403
Ar             -2.1512000             -0.5522850             -4.8067160
Ar             -3.9293050              2.8204974              3.2317331
Ar              1.4460672             -6.3682177             -2.5454936
Ar              5.3438073              0.3213378              4.2261303
Ar             -5.4414056             -1.0119199             -2.9404066
Ar              3.2246347              3.3957987              4.9987250
Ar             -0.1915657             -3.1276633              5.4904641
Ar              4.2117147              5.5700249             -1.1817310
Ar             -2.0318183              5.5208829             -3.3901054
Ar              0.6272739              6.8609536             -0.9542469
Ar             -1.0700067              2.9062909             -5.9895700
Ar              2.1393799             -0.1432287              6.2407947
Ar              1.4950926              0.5653140             -4.4773279
Ar             -3.8303183             -7.2043682              0.4177695
