42
Energy:            -191.2070
Ar             -0.9276197             -0.1159828             -0.6045345
Ar              0.1850012              3.3555542             -1.0795163
Ar              2.1186858              4.5829773              1.9945326
Ar              2.0121791             -2.3384587             -0.2296148
Ar             -0.9445141              2.2292837              2.2856980
Ar             -1.1441951             -0.7729819             -4.2265530
Ar             -3.0830502              4.5752481              0.3378669
Ar              2.2091073              1.1054879              0.9162947
Ar             -4.6052913             -0.7801417              4.1032402
Ar             -4.0612516              3.0642084              4.0023701
Ar              2.0550472              0.5040819             -2.6510167
Ar             -2.8177019             -2.4833154              1.3602605
Ar              1.6172413             -1.8337971              6.1035920
Ar             -3.0436386              2.1473258             -2.6215836
Ar              3.8557290              2.8356630             -4.8768840
Ar              4.0707014              3.4252364             -1.1600920
Ar              0.2304470             -1.2006225              2.8024064
Ar              2.0586940              1.6702071              4.5506147
Ar             -6.4959789             -1.9527000              0.9781133
Ar              5.2869944              2.3040440              2.4071336
Ar              3.8861565             -4.8723955              1.7119526
Ar              0.0268857              2.8145270             -4.7687361
Ar              1.8269943             -5.9121808             -1.3235124
Ar              5.2268002             -0.2674645             -0.5616584
Ar              1.9227403             -0.1075020             -6.3449921
Ar             -4.1651822              1.0158229              0.8297008
Ar              3.9754489             -1.3381697              2.9968444
Ar              5.0509153             -0.8631087             -4.2937068
Ar             -4.1778156             -1.4320529             -2.0277319
Ar             -5.0382348             -4.6567007              3.2779455
Ar             -1.4474831              0.5631268              5.5998608
Ar             -4.7090744             -4.9277793             -0.6334180
Ar             -1.8813763              5.7020393             -3.1400077
Ar              0.0835328             -4.7588244              1.9094920
Ar             -0.0467038              6.8948648             -0.0360508
Ar              1.8919853             -3.0333058             -3.8884232
Ar              4.9995586             -3.8188656             -1.8397816
Ar             -1.6811452             -7.1366313             -0.3386517
Ar             -1.2198711              5.7082370              3.4434871
Ar             -1.8659216             -3.2903456              4.9653610
Ar              1.9462578              5.7645071             -3.2344711
Ar             -1.1595186             -3.6744316             -1.7280397
