42
Energy:            -185.5513
Ar              0.1954264              1.7616701             -0.5829324
Ar              0.4598112             -0.6012419             -3.2395578
Ar              2.3029035             -2.3252302              3.6707679
Ar             -1.0171741              2.5636320             -4.6921147
Ar              2.8150883              0.8906937              1.8439632
Ar              2.4203044              2.7737710             -3.5845921
Ar             -2.2018961             -0.9552967             -0.5014466
Ar             -0.4862637             -0.1299849              2.5465963
Ar              1.4760166             -2.0943279             -0.0168026
Ar             -3.1435091             -0.4180328             -4.0328475
Ar             -3.1543053              2.1838077              1.7036883
Ar              3.6084683             -1.6514361             -4.8476743
Ar             -5.7012853             -0.1667982              0.1346840
Ar              2.9353877             -1.4867801              7.3037143
Ar              5.2935100             -1.7910395              1.4321350
Ar              3.1021924              4.0280213             -0.0317211
Ar             -3.8538059             -1.3052024              3.2253849
Ar              1.3942987              0.6744845             -6.7205522
Ar             -3.3648485              2.5444497             -1.8896086
Ar              1.4460680             -4.2615566             -3.1221671
Ar             -3.8505989             -3.5059766             -6.1136559
Ar              5.9776550              3.2092592             -2.3692875
Ar              4.2474781              2.3267315              7.5195589
Ar             -2.1723235             -3.7959364             -2.7735586
Ar              3.9304032              0.1839757             -1.5410505
Ar             -4.5143876              2.7926645             -5.7198078
Ar              6.2203930              1.9494580              1.2052048
Ar             -6.0435803             -0.5649188             -6.4569600
Ar             -5.8470093             -2.5861867             -2.9161830
Ar              1.4879331              1.2300875              5.2981199
Ar             -2.3300745              0.1411209             -7.5271242
Ar             -6.6315277              1.1175835             -3.1769381
Ar              3.9574970              3.7496738              3.8355156
Ar              5.1312790              0.1622571              4.6090048
Ar              4.7787278             -3.4875329             -1.7765319
Ar             -0.7937967             -1.8950356              5.7490060
Ar             -2.2403432              1.6399825              5.2870212
Ar             -4.4259672             -3.7881948              0.3629793
Ar             -0.2304547             -2.7021169             -6.1136733
Ar             -0.2528578              5.0922954             -1.9221173
Ar             -1.0877786             -3.7195602              2.1495777
Ar              0.2684991              3.5948648              2.6393103
