42
Energy:            -186.8056
Ar              1.6747512             -0.1218351              0.9113113
Ar              0.3589484              2.5978387             -1.2154845
Ar             -2.0517792              0.0106010             -1.2048712
Ar              1.4466305             -3.3856896              2.7743760
Ar             -1.2563905              1.7826065              2.0932487
Ar             -1.7882262             -1.7317868              2.0274841
Ar              4.2582018              1.2465722             -2.4634710
Ar              3.5279379              3.4816787              0.3562032
Ar              1.9859847              2.6128737              3.5965857
Ar              3.7040635             -2.4813634             -1.2308054
Ar             -1.9223270             -2.5287927             -3.9061862
Ar             -4.3540214              2.4540716             -2.6933058
Ar             -3.5748080             -0.1191204              4.7660771
Ar              1.4929759             -4.2665546             -3.8172529
Ar             -3.8239464             -3.1613094             -0.7109064
Ar             -4.7619338              0.4185764              1.2040312
Ar              5.0699550             -3.5927343              1.9917441
Ar              1.1536846             -0.5327699             -2.9617907
Ar             -1.3012445              2.7698576              5.7588800
Ar             -1.7151580             -3.6910520              5.1219545
Ar              2.4394244              1.6245607             -5.7037535
Ar              4.1037211             -1.7043864             -4.9166354
Ar              3.8061716             -0.6932643              4.0826448
Ar              2.4903071              4.5947554             -3.3730951
Ar              0.2146446             -0.4595016              4.8039574
Ar             -2.7985366              4.3678247              0.0663031
Ar             -4.8508306             -3.5029623              2.8926952
Ar              0.5906374             -1.5473124             -6.4863177
Ar              0.0145808             -3.0430416             -0.7046520
Ar             -1.2768507              1.5146151             -4.6745992
Ar              0.7087010              6.1139460             -0.2960519
Ar              5.4210793              0.1583244              0.8825886
Ar              2.8972760              6.2350139              2.8081154
Ar              2.2278655             -5.8287465             -0.0607527
Ar             -0.7533961              5.3137740              3.0719529
Ar             -1.4395883              5.0547332             -3.3123289
Ar             -1.5134555             -5.4221255              1.6973417
Ar             -4.2323433              3.4763221              3.4705737
Ar             -4.7760818             -6.5861278              0.3491663
Ar             -1.6283597             -5.9947045             -2.0780098
Ar              1.4500012              5.3089922              6.1857580
Ar              0.2608515              4.4984437             -6.5638313
