42
Energy:            -189.7826
Ar             -2.2116479              0.9029011              0.0045950
Ar             -1.4778833              3.7979192              2.3290774
Ar             -0.6730187              0.8479187             -5.9251517
Ar             -1.5137534             -3.3572446              3.6947202
Ar             -1.6659174              0.3315277              3.5509414
Ar             -4.9075725              1.8755108              2.5383029
Ar              0.1526696             -0.2182835             -2.5267508
Ar             -1.9544253              3.0314618             -3.1529861
Ar             -3.5105720             -5.3716784              0.9977028
Ar             -1.8924466             -2.6870021             -0.9297044
Ar              2.6877294              1.9499758             -3.9530337
Ar             -1.2618316             -2.9626504             -4.7299456
Ar             -1.6718138             -0.1279751              7.2971530
Ar              2.0427410              5.3358436              1.7175504
Ar              4.9875807             -2.0485966             -2.9613499
Ar              0.2883356              2.8039691              5.7276238
Ar              0.2799145             -5.2377626              0.8144296
Ar              3.9584942              4.6258921             -1.5305583
Ar              0.8035378              2.8987325             -0.7688901
Ar              2.2863400             -4.0999946              3.7288774
Ar             -3.4224243              2.8708522              5.7462588
Ar              3.2374337              0.1394484             -0.6217118
Ar             -4.7507500             -0.8085390              5.2726757
Ar              2.1927123             -1.5311079             -5.3878180
Ar              6.1173154              1.6735401             -2.3892416
Ar             -5.8992143              0.5996224             -0.8079587
Ar              0.7052908             -1.5586949              1.3167073
Ar              5.1428417              2.5623446              1.3624727
Ar              1.5061412             -3.6038327             -2.3069793
Ar              1.3206073             -0.8886235              5.2346106
Ar             -4.2768659             -1.7340057              1.6943719
Ar             -5.4322573             -3.1520169             -1.6607216
Ar              3.9133754             -3.4936332              0.4149823
Ar              5.4714310              0.3184768             -5.8739444
Ar              6.7526359             -0.9076196              0.2292028
Ar             -1.6118574             -6.0105761             -2.4090044
Ar             -1.0139131              6.0771426             -0.6559094
Ar              4.2437504             -0.8487178              2.9669046
Ar             -3.4837996             -0.3324335             -3.4231608
Ar              0.9778296              5.2619189             -3.7668104
Ar             -4.1976502              4.0577521             -0.3779593
Ar              1.6756594              1.7301452              2.5274816
