42
Energy:            -189.7252
Ar              0.3550662             -0.0950261             -0.4989906
Ar              1.4126171             -2.9481675              1.4397264
Ar             -3.8055481             -0.2482684             -0.2911606
Ar             -1.7348352             -1.6038071              2.3849258
Ar              3.9322316             -0.3844396              1.3105143
Ar             -1.6643803              2.0119298              1.7622522
Ar              1.8539390              2.8186970              1.0184358
Ar              1.1673312              0.2635547              3.5713633
Ar              3.8464130              1.4111687             -1.8478234
Ar             -0.2273230              5.6198557             -0.1024586
Ar              2.9681740             -2.3003685             -1.8815331
Ar              0.2584012              2.5128046              6.5056786
Ar             -4.8707503             -0.4155279              3.7367721
Ar              3.8969543             -2.9377138              4.1637228
Ar              3.3944833              5.0907716             -1.5237882
Ar              5.1790297              0.4535071              4.7246470
Ar             -1.3555567             -5.3690994              2.0728991
Ar              6.5161331             -1.2396315             -1.2035511
Ar              1.7078118              0.0027796             -4.5263932
Ar              2.9987175              6.2547081              1.9834760
Ar              0.4564951              2.9322248             -2.5842068
Ar             -4.6905804             -3.5476623              1.3134753
Ar             -0.9921891             -1.1501463             -6.9242541
Ar             -3.3591185              5.4542176              1.9035829
Ar              3.2035643              3.4520923              4.4291650
Ar             -5.4827220              2.4960569              1.5549182
Ar              2.1912298             -0.7909262              6.9010008
Ar              2.2922931             -6.1894032              2.8695736
Ar             -0.1284316              4.8172460              3.6069141
Ar             -1.6084784             -3.1990792             -0.9610014
Ar              4.8116185             -4.2064244              0.7060822
Ar             -1.7504856             -0.5014938              5.9049165
Ar             -3.4502834             -3.7762906              4.8880442
Ar             -3.2650807              2.8831125              4.8984929
Ar              7.1686919             -1.8332036              2.4922187
Ar             -1.8677174             -0.0762738             -3.4153690
Ar              1.3340001             -5.6448324             -0.9830229
Ar             -7.3156360             -0.8030982              0.8961955
Ar              0.3151498             -3.4705740              4.9363460
Ar              5.4883366              3.0089047              1.3587878
Ar              0.2146995             -3.4214178             -4.1225267
Ar             -3.0553291              3.2676048             -1.3878785
