42
Energy:            -185.9475
Ar             -0.4522475              0.6812438              1.3435894
Ar              0.8489826              2.6768330              4.1386783
Ar              1.6906820              0.7501526             -2.7169377
Ar              1.9513008             -1.8160105              0.0768336
Ar             -1.2656103             -1.3010648             -1.6184594
Ar              2.2309448             -0.8108033              3.5722396
Ar             -3.0251679              2.6319556              3.1452131
Ar             -1.3387506             -0.4975415              4.7391655
Ar             -1.1625738             -0.1265685             -5.0625495
Ar             -4.0552799              4.3106460             -0.1071560
Ar              0.6258868             -4.1815598              2.7737795
Ar             -1.3986982              2.4017438             -1.8243637
Ar             -3.7556639              2.6696167             -4.5989159
Ar              1.8013244              4.4415133             -1.8510120
Ar             -0.4033052              4.4300334              1.1259480
Ar             -4.9916014             -0.5456262              3.5474433
Ar              3.5512160             -4.8698208             -1.2435406
Ar              1.4762702             -2.8163223             -3.6608771
Ar             -2.1220590             -3.7491557             -4.2717258
Ar              2.8109368              1.8933430              0.6419694
Ar             -2.3427622             -2.4108865              1.7289494
Ar             -6.9251754             -1.3226928             -0.0873909
Ar              4.9954293              2.4115284             -2.3864712
Ar             -3.8700184              0.5619259              0.1365798
Ar              3.1798335              5.1652103              2.1798867
Ar              5.3601120             -0.5438452              1.4017593
Ar              4.7215251             -1.3486401             -2.3053972
Ar              4.5354271              2.0852003              4.0628871
Ar             -1.9215371              2.6454048              6.7315786
Ar             -6.5033893              2.0857140             -2.0013938
Ar              4.2730051             -3.9221709              2.3343721
Ar              0.1311259              3.3840875             -5.0700210
Ar              5.0998360              5.9552929             -0.9968839
Ar             -2.6095768             -6.1160162              1.6911247
Ar              7.0158428             -3.4607850             -0.2720610
Ar             -0.2936929             -4.7306688             -0.8851230
Ar              7.9178206              0.2871706             -1.1644640
Ar             -6.6994608              2.2822790              1.7832226
Ar             -5.7128442             -4.0119295              2.3008147
Ar              6.3930626              3.0790360              1.0134990
Ar             -4.5115788             -0.8097859             -3.3091599
Ar             -4.1224598             -3.8154183             -1.1154665
