42
Energy:            -185.7581
Ar             -0.5761960             -1.0264112              0.0904240
Ar              1.5246741              0.4941494              2.7443242
Ar             -0.0879501              1.8398818             -2.2790982
Ar              1.7365265             -1.2337306             -2.9811059
Ar             -2.1688432              0.8153276              2.8272652
Ar             -0.4131206             -2.4473392              3.5369262
Ar              3.1141638              2.0131371             -4.1488456
Ar             -0.0720512              3.2951644              1.0535584
Ar             -2.2090710             -1.0063258             -3.1123704
Ar             -4.5211046             -1.7825124             -0.2920517
Ar              2.8337637             -2.3366623              0.5400121
Ar             -2.7461387              3.5080075              5.4212353
Ar              3.2272160             -2.5393850              4.2377070
Ar             -4.2520654              0.1651263              5.9350509
Ar             -3.3103648              1.6419291             -0.6291110
Ar              3.0415543              1.2197294             -0.5194193
Ar             -3.1782317              2.4026817             -4.3506818
Ar             -0.3032728             -3.1746465             -5.4152912
Ar             -0.4381566              0.4723690              6.0137429
Ar             -4.1000697             -2.4380965              3.3604739
Ar              3.4026860              0.9818455              5.8248570
Ar             -5.7492389              0.9098401              2.2746330
Ar              0.9995330             -5.1466757              5.8154884
Ar              0.8767962              3.6683871              4.6619815
Ar              1.2230230             -5.3713658              2.0281865
Ar             -1.9202641              5.0099885             -1.7102296
Ar              0.0626420              4.3597084             -4.9437765
Ar              3.0442293             -1.0057965             -6.5099042
Ar              3.5900991              3.6767169              2.1390907
Ar             -3.1169103             -4.5295521             -2.8672157
Ar             -3.3978471             -0.9993230             -6.5885453
Ar              0.4747645             -4.3724272             -1.6977626
Ar             -0.1462126              0.6646795             -5.7690270
Ar              2.1061161              4.7524443             -1.6454164
Ar             -2.1816242             -4.3792769              0.8011018
Ar              1.7170406             -1.9930182              7.6380758
Ar              5.1823254              0.1662447              2.4327513
Ar              3.5983998              5.5700903             -5.1453592
Ar             -2.3099342             -5.6831925              4.2465326
Ar             -3.6007988              4.2860602              1.8793140
Ar             -2.0416593             -2.8552827              6.7922339
Ar              2.2963690              2.8104402             -7.6646550
