42
Energy:            -189.4651
Ar             -0.1371875              1.7152473              0.3974885
Ar             -1.9038889              0.0421796              3.8883600
Ar             -1.3597828             -1.8811342              0.4758316
Ar             -2.1437920              0.4997046             -2.3220852
Ar              1.3400065             -0.8774561              2.6346112
Ar              0.8888268             -0.3374056              6.2881951
Ar              2.8488447              4.6340981             -0.5184740
Ar              1.0425463              2.6989092              3.6335697
Ar              0.6792472             -0.0138640             -4.5310087
Ar              2.5120775              3.0722373              6.9862748
Ar             -3.2088097              3.0873171             -4.6764335
Ar             -2.7883683              3.5521594              3.0508802
Ar              0.8318578             -3.4317626             -5.9909116
Ar             -0.2379210              5.4178258              1.2174854
Ar             -1.5741360             -5.4457458             -0.1701853
Ar             -0.9506178             -3.6057228              3.7727638
Ar              2.7635659             -3.3624664              4.9045222
Ar             -1.4822136             -2.9757931             -3.0907439
Ar             -3.7531409              0.7932458              0.8690329
Ar              1.8575205             -1.2755709             -1.1298592
Ar              6.9824604              1.0406478              2.2348942
Ar             -5.5162465              1.0261206              4.1040718
Ar              3.5203092              1.3317537              0.8839936
Ar             -3.0041556              3.9326142             -0.8883471
Ar             -4.4394642             -2.4520687              2.5363400
Ar              4.5322308              4.0922809              3.0247880
Ar              3.8701043             -2.0026035             -4.1127519
Ar             -1.3733155              2.7144737              6.4837012
Ar             -6.2132953              3.4764471              1.1706968
Ar             -2.8747828             -0.6694107             -5.7386333
Ar              4.8383711             -4.0621323             -1.0744221
Ar             -4.6761486             -2.1167123             -1.2975195
Ar              1.7519465             -4.2349008              1.1952255
Ar             -7.2503400             -0.2823116              0.9041198
Ar              3.4819784              1.7041317             -2.8264429
Ar              6.3054954              3.2655378             -0.6945849
Ar              5.9670659             -0.5166636             -1.2147813
Ar             -5.7302517              1.5179429             -2.1868084
Ar              0.1521134              3.4260003             -2.8804499
Ar              4.1031184              0.6001272              4.6018337
Ar              4.7740576             -2.0346893              1.9987051
Ar              1.5689209             -4.8383760             -2.5232233
