42
Energy:            -187.4863
Ar              1.5380232             -0.1514783              0.2996515
Ar              0.8781798             -2.8648052             -2.3932721
Ar             -2.1829358              0.7164384              1.4554473
Ar             -1.3028954              3.5978826             -0.4398423
Ar              2.2667413              3.3494018             -0.6936137
Ar             -1.2101398             -2.5753743              0.5623818
Ar              2.2631864             -3.6459850              0.9732562
Ar             -1.2961335              0.1302872             -2.0807966
Ar              3.6037729              0.3140592              3.4969690
Ar              2.2934400             -7.1792463              1.9531387
Ar             -4.7947589             -1.0944785             -3.6941504
Ar             -3.3995374             -2.0805800              3.5824745
Ar              2.9176232             -5.9490171             -2.0153957
Ar             -2.6763630              4.2913110              2.8565739
Ar             -2.3709584              7.1584040              0.2305863
Ar             -4.4614822              1.8627031             -1.4280771
Ar              0.8242790              5.9444180              1.7479471
Ar             -4.7429031             -1.5732932              0.0413977
Ar             -2.8300806             -3.9019732             -2.3963010
Ar              4.5159377             -2.4092591             -1.6660820
Ar              0.2665588             -1.2333749              3.6582962
Ar             -5.5417911              1.6530414              2.3266088
Ar             -3.7679703             -5.1120319              1.2065371
Ar              4.1129675              3.9141254              2.4578329
Ar             -0.2195182             -5.8173132             -4.2947428
Ar             -1.3283630             -1.7966553             -5.2230400
Ar              0.6948782              2.4386643              2.7141486
Ar              5.0391828              0.9902366             -0.0415609
Ar              2.4534522              0.3715346             -3.2081383
Ar              0.0174968              4.8084695              5.4254641
Ar             -5.3228477              4.9478774              0.2881318
Ar              0.2079913              3.2283193             -3.8343104
Ar              5.4877270             -5.6442404              0.6306041
Ar              3.1311165             -3.5578343              4.4924013
Ar             -2.1121883              1.3431161              5.0929928
Ar              0.5316957              6.4657210             -2.0353440
Ar             -3.1834068              5.1941533             -3.0766588
Ar              5.6751978             -2.2056117              1.8993670
Ar             -0.4273098             -6.0265841             -0.4154299
Ar              4.9319505              3.1743266             -3.2473083
Ar             -3.0039212              1.8588666             -4.9756106
Ar             -0.4693469             -4.9050790              3.3130163
