42
Energy:            -188.9843
Ar              0.2188987             -1.2369190             -0.1273646
Ar             -1.7434114             -0.5052514              2.6624208
Ar              2.1886829             -2.4005362             -2.9990706
Ar              1.7233832              1.4077344             -2.1471803
Ar              1.1510756              1.9203166              1.6869261
Ar             -1.2522080             -4.0058784             -1.9770855
Ar             -0.8859244             -4.0246065              1.9082276
Ar             -5.1219464              2.5766341             -0.0584451
Ar              2.5138136             -4.1161471              0.3700265
Ar             -1.5632375              2.0412800             -0.6506029
Ar              5.0022632              0.0727099             -3.4115717
Ar             -1.0912884             -0.4940147             -3.3187829
Ar             -2.6536755              2.9396767              3.0008108
Ar              3.0976040              5.0573634              1.5976714
Ar             -3.3751271              0.1690936              5.8693907
Ar              1.5337842              5.0239735             -1.9507782
Ar             -0.6435019              3.0429018             -4.4293989
Ar             -3.5740708             -1.0208188             -0.5663146
Ar             -1.6477129             -6.1507102              4.8470903
Ar              3.4989831              3.3561849             -4.6928268
Ar             -0.6332786             -2.5955897              5.5495719
Ar             -2.9093204              5.0787165             -2.1537949
Ar              3.7033904             -0.5591876              0.0371612
Ar             -0.4786314             -3.1599572             -5.7014071
Ar              7.2566888              0.0580791              0.0688526
Ar              1.9490483             -1.4232296              3.1392902
Ar             -4.0821384              1.5726120             -3.5094712
Ar             -5.3838370              0.0602162              2.6389820
Ar              5.7168139             -3.1948068             -1.4922065
Ar              1.6510073              0.1774777             -5.7068492
Ar              0.2685991              1.0983087              5.3096342
Ar             -4.2425850             -4.5309337              0.3523181
Ar             -0.6588131              5.2900546              0.9290568
Ar              4.6570613              1.5479442              2.8523746
Ar             -3.9833586             -3.2037692              3.9188200
Ar              4.8110317              2.9079204             -0.8829207
Ar              5.4334477             -2.6928665              2.4374303
Ar             -4.0760941             -2.3849386             -4.1133555
Ar              0.5485550              4.6404152              4.3585604
Ar             -4.3027803              5.9404666              1.3356512
Ar             -2.2068714              0.2349403             -6.6785251
Ar              2.0330987             -5.0055907              4.0606728
