42
Energy:            -192.1318
Ar              1.0071786              0.3283767              1.3487850
Ar              4.0278038              1.8444200              0.0320102
Ar              0.5867546              2.7400877             -1.3206922
Ar              0.3363281             -3.0694033              0.3254455
Ar              2.0033042             -0.6499348             -1.9848881
Ar              1.3139776             -2.2040752              3.9518275
Ar             -0.1550838              1.2714651              4.6551086
Ar             -2.0898087             -1.1786282              2.4285148
Ar             -1.6135303             -0.2520157             -1.1461815
Ar              3.8848047             -1.8844627              1.1336250
Ar             -4.6629260              1.8732932             -1.0824040
Ar             -2.3463736             -3.7214885             -2.1768594
Ar             -2.0786985              2.1756268             -3.9068734
Ar              4.5212944              5.4856272              0.7225064
Ar              0.1518257              5.2344427             -4.0909460
Ar              6.9712608             -0.4012370             -0.4213432
Ar             -0.6406545             -1.3261604             -4.5748205
Ar             -1.2132355             -6.3794770             -4.5403553
Ar             -2.8344220             -4.7083919              1.4404664
Ar             -1.9454486              2.4282523              1.4302214
Ar              1.5206751              3.8109189              2.2092548
Ar              3.6404465              0.9898552              3.7699881
Ar              1.3906944             -4.1423637             -3.0718546
Ar              4.9060037             -2.9115948             -2.3594810
Ar              0.5613364             -5.7444130              2.8559655
Ar             -0.3524343             -6.6017763             -0.7669646
Ar              5.0509728              0.8461568             -3.4546137
Ar             -5.1695068              0.9310346              2.5752240
Ar              3.5981339              4.3223754             -2.7715280
Ar              3.1941498             -5.4084576              0.0214202
Ar             -3.2594775              3.4474987              4.7180910
Ar              1.0513396              6.3282069             -0.5557595
Ar             -1.9249399             -3.7857403              5.0431209
Ar             -4.8236419             -1.8036237             -0.0488470
Ar             -1.5471031              6.0028450              2.2632854
Ar              3.0334252             -1.6896252             -5.4482302
Ar              1.5891847              1.7702916             -4.7895535
Ar             -4.3141446             -0.8760503             -3.6977843
Ar             -2.4294195              4.9364969             -1.2975670
Ar             -5.2958088             -2.7474266              3.5906991
Ar             -3.4023933             -0.2531798              5.7650193
Ar              0.1475760              4.9222210              5.4960363
