42
Energy:            -188.2486
Ar              1.6057057              0.0534410             -0.4211688
Ar              3.2053081             -1.2584855              2.9177650
Ar             -2.0361329              0.5845275              0.0395993
Ar              2.7877618              1.3379566              5.8332555
Ar             -0.7886980             -0.4364281             -3.5108682
Ar              2.1671040             -2.6398538             -3.2050274
Ar              0.3512848              1.0784067              3.1580860
Ar              2.5610446              0.9673970             -4.2764385
Ar             -0.2950971             -2.2054001              2.2255900
Ar              3.6684972              2.4087147              2.1402071
Ar             -0.8608351             -2.9628698             -1.1216218
Ar             -1.6480664             -3.8610483             -4.6254419
Ar             -0.1312230              2.8497120             -2.5725648
Ar              0.5335612             -6.0923703             -2.3222803
Ar              3.6867376             -2.3504904              6.4646927
Ar              1.1699895              4.5110762              4.2859271
Ar             -0.9057936             -5.7479550              1.3261265
Ar              3.3530679              3.5003354             -1.5184218
Ar              0.4447379              3.6074055              0.7704801
Ar              1.6199260             -5.1728104             -5.9023372
Ar             -3.3765538             -5.5440051             -1.6514879
Ar              1.6194685             -4.6168855              4.1423264
Ar             -4.0976762             -1.7329426             -2.4559566
Ar             -3.6177427              1.9602674             -3.3763808
Ar              0.5685771              6.3820763             -1.6860332
Ar             -3.2611295             -0.7446967             -6.1687871
Ar             -2.6077734              3.2174104              2.7809289
Ar             -1.1987321              2.2125110              6.2482979
Ar             -2.1964510              5.8655213              5.3409343
Ar              0.6701127             -1.5148568             -6.6539586
Ar             -2.3133880             -4.1462414              4.5573992
Ar              1.8979530              4.7452745             -4.9313783
Ar             -4.5403892              6.3630607              2.2488997
Ar              0.1033842             -1.4450957              5.8419358
Ar             -0.6982878              2.1359849             -6.1682344
Ar             -3.7689077             -2.9074996              1.1640517
Ar             -0.8277465              6.8019253              1.9047957
Ar             -3.0302766             -0.3444584              3.8799454
Ar              2.4042905             -3.9286904              0.3534666
Ar             -1.9882781              5.3639355             -4.4372729
Ar             -2.8082906              4.6141779             -0.7117913
Ar              3.0029434              6.1540491              1.3116694
